n -t * -s 0  -x 447 -y 199 -Z 0 -z 20  -v circle -c black
n -t * -s 1  -x 410 -y 361 -Z 0 -z 20  -v circle -c black
n -t * -s 2  -x 286 -y 363 -Z 0 -z 20  -v circle -c black
n -t * -s 3  -x 281 -y 210 -Z 0 -z 20  -v circle -c black
n -t * -s 4  -x 138 -y 246 -Z 0 -z 20  -v circle -c black
V -t * -v 1.0a5 -a 0
W -t * -x 956 -y 600
A -t * -n 1 -p 0 -o 0x7fffffff -c 30 -a 1
A -t * -h 1 -m 1073741823 -s 0
+ -t 0.036574082 -s 0 -d -1 -p message -e 32 -c 2 -a 0 -i 0 -k RTR 
- -t 0.036574082 -s 0 -d -1 -p message -e 32 -c 2 -a 0 -i 0 -k RTR
h -t 0.036574082 -s 0 -d -1 -p message -e 32 -c 2 -a 0 -i 0 -k RTR
+ -t 0.037009082 -s 0 -d -1 -p message -e 90 -c 2 -a 0 -i 0 -k MAC 
- -t 0.037009082 -s 0 -d -1 -p message -e 90 -c 2 -a 0 -i 0 -k MAC
h -t 0.037009082 -s 0 -d -1 -p message -e 90 -c 2 -a 0 -i 0 -k MAC
r -t 0.037729636 -s 1 -d -1 -p message -e 32 -c 2 -a 0 -i 0 -k MAC
r -t 0.037729636 -s 3 -d -1 -p message -e 32 -c 2 -a 0 -i 0 -k MAC
r -t 0.037729848 -s 2 -d -1 -p message -e 32 -c 2 -a 0 -i 0 -k MAC
r -t 0.037754636 -s 1 -d -1 -p message -e 32 -c 2 -a 0 -i 0 -k RTR
r -t 0.037754636 -s 3 -d -1 -p message -e 32 -c 2 -a 0 -i 0 -k RTR
r -t 0.037754848 -s 2 -d -1 -p message -e 32 -c 2 -a 0 -i 0 -k RTR
+ -t 0.184608578 -s 1 -d -1 -p message -e 32 -c 2 -a 0 -i 1 -k RTR 
- -t 0.184608578 -s 1 -d -1 -p message -e 32 -c 2 -a 0 -i 1 -k RTR
h -t 0.184608578 -s 1 -d -1 -p message -e 32 -c 2 -a 0 -i 1 -k RTR
+ -t 0.185223578 -s 1 -d -1 -p message -e 90 -c 2 -a 0 -i 1 -k MAC 
- -t 0.185223578 -s 1 -d -1 -p message -e 90 -c 2 -a 0 -i 1 -k MAC
h -t 0.185223578 -s 1 -d -1 -p message -e 90 -c 2 -a 0 -i 1 -k MAC
r -t 0.185943991 -s 2 -d -1 -p message -e 32 -c 2 -a 0 -i 1 -k MAC
r -t 0.185944132 -s 0 -d -1 -p message -e 32 -c 2 -a 0 -i 1 -k MAC
r -t 0.185944240 -s 3 -d -1 -p message -e 32 -c 2 -a 0 -i 1 -k MAC
r -t 0.185968991 -s 2 -d -1 -p message -e 32 -c 2 -a 0 -i 1 -k RTR
r -t 0.185969132 -s 0 -d -1 -p message -e 32 -c 2 -a 0 -i 1 -k RTR
r -t 0.185969240 -s 3 -d -1 -p message -e 32 -c 2 -a 0 -i 1 -k RTR
+ -t 0.627061626 -s 4 -d -1 -p message -e 32 -c 2 -a 0 -i 2 -k RTR 
- -t 0.627061626 -s 4 -d -1 -p message -e 32 -c 2 -a 0 -i 2 -k RTR
h -t 0.627061626 -s 4 -d -1 -p message -e 32 -c 2 -a 0 -i 2 -k RTR
+ -t 0.627296626 -s 4 -d -1 -p message -e 90 -c 2 -a 0 -i 2 -k MAC 
- -t 0.627296626 -s 4 -d -1 -p message -e 90 -c 2 -a 0 -i 2 -k MAC
h -t 0.627296626 -s 4 -d -1 -p message -e 90 -c 2 -a 0 -i 2 -k MAC
r -t 0.628017117 -s 3 -d -1 -p message -e 32 -c 2 -a 0 -i 2 -k MAC
r -t 0.628017255 -s 2 -d -1 -p message -e 32 -c 2 -a 0 -i 2 -k MAC
r -t 0.628042117 -s 3 -d -1 -p message -e 32 -c 2 -a 0 -i 2 -k RTR
r -t 0.628042255 -s 2 -d -1 -p message -e 32 -c 2 -a 0 -i 2 -k RTR
+ -t 0.883288153 -s 2 -d -1 -p message -e 32 -c 2 -a 0 -i 3 -k RTR 
- -t 0.883288153 -s 2 -d -1 -p message -e 32 -c 2 -a 0 -i 3 -k RTR
h -t 0.883288153 -s 2 -d -1 -p message -e 32 -c 2 -a 0 -i 3 -k RTR
+ -t 0.883563153 -s 2 -d -1 -p message -e 90 -c 2 -a 0 -i 3 -k MAC 
- -t 0.883563153 -s 2 -d -1 -p message -e 90 -c 2 -a 0 -i 3 -k MAC
h -t 0.883563153 -s 2 -d -1 -p message -e 90 -c 2 -a 0 -i 3 -k MAC
r -t 0.884283566 -s 1 -d -1 -p message -e 32 -c 2 -a 0 -i 3 -k MAC
r -t 0.884283663 -s 3 -d -1 -p message -e 32 -c 2 -a 0 -i 3 -k MAC
r -t 0.884283782 -s 4 -d -1 -p message -e 32 -c 2 -a 0 -i 3 -k MAC
r -t 0.884283919 -s 0 -d -1 -p message -e 32 -c 2 -a 0 -i 3 -k MAC
r -t 0.884308566 -s 1 -d -1 -p message -e 32 -c 2 -a 0 -i 3 -k RTR
r -t 0.884308663 -s 3 -d -1 -p message -e 32 -c 2 -a 0 -i 3 -k RTR
r -t 0.884308782 -s 4 -d -1 -p message -e 32 -c 2 -a 0 -i 3 -k RTR
r -t 0.884308919 -s 0 -d -1 -p message -e 32 -c 2 -a 0 -i 3 -k RTR
n -t 1.000000 -s 1 -x 410.000000 -y 361.000000 -U 8.277809 -V -5.610515 -T 10.872442
+ -t 1.000000000 -s 1 -d -1 -p tcp -e 40 -c 2 -a 0 -i 4 -k AGT 
- -t 1.000000000 -s 1 -d -1 -p tcp -e 40 -c 2 -a 0 -i 4 -k AGT
h -t 1.000000000 -s 1 -d -1 -p tcp -e 40 -c 2 -a 0 -i 4 -k AGT
+ -t 1.602397764 -s 3 -d -1 -p message -e 32 -c 2 -a 0 -i 5 -k RTR 
- -t 1.602397764 -s 3 -d -1 -p message -e 32 -c 2 -a 0 -i 5 -k RTR
h -t 1.602397764 -s 3 -d -1 -p message -e 32 -c 2 -a 0 -i 5 -k RTR
+ -t 1.602912764 -s 3 -d -1 -p message -e 90 -c 2 -a 0 -i 5 -k MAC 
- -t 1.602912764 -s 3 -d -1 -p message -e 90 -c 2 -a 0 -i 5 -k MAC
h -t 1.602912764 -s 3 -d -1 -p message -e 90 -c 2 -a 0 -i 5 -k MAC
r -t 1.603633255 -s 4 -d -1 -p message -e 32 -c 2 -a 0 -i 5 -k MAC
r -t 1.603633274 -s 2 -d -1 -p message -e 32 -c 2 -a 0 -i 5 -k MAC
r -t 1.603633318 -s 0 -d -1 -p message -e 32 -c 2 -a 0 -i 5 -k MAC
r -t 1.603633428 -s 1 -d -1 -p message -e 32 -c 2 -a 0 -i 5 -k MAC
r -t 1.603658255 -s 4 -d -1 -p message -e 32 -c 2 -a 0 -i 5 -k RTR
r -t 1.603658274 -s 2 -d -1 -p message -e 32 -c 2 -a 0 -i 5 -k RTR
r -t 1.603658318 -s 0 -d -1 -p message -e 32 -c 2 -a 0 -i 5 -k RTR
r -t 1.603658428 -s 1 -d -1 -p message -e 32 -c 2 -a 0 -i 5 -k RTR
+ -t 1.603658428 -s 1 -d 3 -p tcp -e 80 -c 2 -a 0 -i 4 -k RTR 
- -t 1.603658428 -s 1 -d 3 -p tcp -e 80 -c 2 -a 0 -i 4 -k RTR
h -t 1.603658428 -s 1 -d 3 -p tcp -e 80 -c 2 -a 0 -i 4 -k RTR
+ -t 1.604293428 -s 1 -d -1 -p ARP -e 86 -c 2 -a 0 -i 0 -k MAC 
- -t 1.604293428 -s 1 -d -1 -p ARP -e 86 -c 2 -a 0 -i 0 -k MAC
h -t 1.604293428 -s 1 -d -1 -p ARP -e 86 -c 2 -a 0 -i 0 -k MAC
r -t 1.604981859 -s 2 -d -1 -p ARP -e 28 -c 2 -a 0 -i 0 -k MAC
r -t 1.604981968 -s 0 -d -1 -p ARP -e 28 -c 2 -a 0 -i 0 -k MAC
r -t 1.604982093 -s 3 -d -1 -p ARP -e 28 -c 2 -a 0 -i 0 -k MAC
+ -t 1.605577093 -s 3 -d -1 -p RTS -e 44 -c 2 -a 0 -i 0 -k MAC 
- -t 1.605577093 -s 3 -d -1 -p RTS -e 44 -c 2 -a 0 -i 0 -k MAC
h -t 1.605577093 -s 3 -d -1 -p RTS -e 44 -c 2 -a 0 -i 0 -k MAC
r -t 1.605929757 -s 1 -d -1 -p RTS -e 44 -c 2 -a 0 -i 0 -k MAC
+ -t 1.605939757 -s 1 -d -1 -p CTS -e 38 -c 2 -a 0 -i 0 -k MAC 
- -t 1.605939757 -s 1 -d -1 -p CTS -e 38 -c 2 -a 0 -i 0 -k MAC
h -t 1.605939757 -s 1 -d -1 -p CTS -e 38 -c 2 -a 0 -i 0 -k MAC
r -t 1.606244422 -s 3 -d -1 -p CTS -e 38 -c 2 -a 0 -i 0 -k MAC
+ -t 1.606254422 -s 3 -d -1 -p ARP -e 86 -c 2 -a 0 -i 0 -k MAC 
- -t 1.606254422 -s 3 -d -1 -p ARP -e 86 -c 2 -a 0 -i 0 -k MAC
h -t 1.606254422 -s 3 -d -1 -p ARP -e 86 -c 2 -a 0 -i 0 -k MAC
r -t 1.606943086 -s 1 -d -1 -p ARP -e 28 -c 2 -a 0 -i 0 -k MAC
+ -t 1.606953086 -s 1 -d -1 -p ACK -e 38 -c 2 -a 0 -i 0 -k MAC 
- -t 1.606953086 -s 1 -d -1 -p ACK -e 38 -c 2 -a 0 -i 0 -k MAC
h -t 1.606953086 -s 1 -d -1 -p ACK -e 38 -c 2 -a 0 -i 0 -k MAC
r -t 1.607257751 -s 3 -d -1 -p ACK -e 38 -c 2 -a 0 -i 0 -k MAC
+ -t 1.607667086 -s 1 -d -1 -p RTS -e 44 -c 2 -a 0 -i 0 -k MAC 
- -t 1.607667086 -s 1 -d -1 -p RTS -e 44 -c 2 -a 0 -i 0 -k MAC
h -t 1.607667086 -s 1 -d -1 -p RTS -e 44 -c 2 -a 0 -i 0 -k MAC
r -t 1.608019751 -s 3 -d -1 -p RTS -e 44 -c 2 -a 0 -i 0 -k MAC
+ -t 1.608029751 -s 3 -d -1 -p CTS -e 38 -c 2 -a 0 -i 0 -k MAC 
- -t 1.608029751 -s 3 -d -1 -p CTS -e 38 -c 2 -a 0 -i 0 -k MAC
h -t 1.608029751 -s 3 -d -1 -p CTS -e 38 -c 2 -a 0 -i 0 -k MAC
r -t 1.608334416 -s 1 -d -1 -p CTS -e 38 -c 2 -a 0 -i 0 -k MAC
+ -t 1.608344416 -s 1 -d 3 -p tcp -e 138 -c 2 -a 0 -i 4 -k MAC 
- -t 1.608344416 -s 1 -d 3 -p tcp -e 138 -c 2 -a 0 -i 4 -k MAC
h -t 1.608344416 -s 1 -d 3 -p tcp -e 138 -c 2 -a 0 -i 4 -k MAC
r -t 1.609449080 -s 3 -d 3 -p tcp -e 80 -c 2 -a 0 -i 4 -k MAC
+ -t 1.609459080 -s 3 -d -1 -p ACK -e 38 -c 2 -a 0 -i 0 -k MAC 
- -t 1.609459080 -s 3 -d -1 -p ACK -e 38 -c 2 -a 0 -i 0 -k MAC
h -t 1.609459080 -s 3 -d -1 -p ACK -e 38 -c 2 -a 0 -i 0 -k MAC
r -t 1.609474080 -s 3 -d 3 -p tcp -e 80 -c 2 -a 0 -i 4 -k AGT
+ -t 1.609474080 -s 3 -d -1 -p ack -e 40 -c 2 -a 0 -i 6 -k AGT 
- -t 1.609474080 -s 3 -d -1 -p ack -e 40 -c 2 -a 0 -i 6 -k AGT
h -t 1.609474080 -s 3 -d -1 -p ack -e 40 -c 2 -a 0 -i 6 -k AGT
+ -t 1.609474080 -s 3 -d 1 -p ack -e 60 -c 2 -a 0 -i 6 -k RTR 
- -t 1.609474080 -s 3 -d 1 -p ack -e 60 -c 2 -a 0 -i 6 -k RTR
h -t 1.609474080 -s 3 -d 1 -p ack -e 60 -c 2 -a 0 -i 6 -k RTR
r -t 1.609763745 -s 1 -d -1 -p ACK -e 38 -c 2 -a 0 -i 0 -k MAC
+ -t 1.610113080 -s 3 -d -1 -p RTS -e 44 -c 2 -a 0 -i 0 -k MAC 
- -t 1.610113080 -s 3 -d -1 -p RTS -e 44 -c 2 -a 0 -i 0 -k MAC
h -t 1.610113080 -s 3 -d -1 -p RTS -e 44 -c 2 -a 0 -i 0 -k MAC
r -t 1.610465745 -s 1 -d -1 -p RTS -e 44 -c 2 -a 0 -i 0 -k MAC
+ -t 1.610475745 -s 1 -d -1 -p CTS -e 38 -c 2 -a 0 -i 0 -k MAC 
- -t 1.610475745 -s 1 -d -1 -p CTS -e 38 -c 2 -a 0 -i 0 -k MAC
h -t 1.610475745 -s 1 -d -1 -p CTS -e 38 -c 2 -a 0 -i 0 -k MAC
r -t 1.610780409 -s 3 -d -1 -p CTS -e 38 -c 2 -a 0 -i 0 -k MAC
+ -t 1.610790409 -s 3 -d 1 -p ack -e 118 -c 2 -a 0 -i 6 -k MAC 
- -t 1.610790409 -s 3 -d 1 -p ack -e 118 -c 2 -a 0 -i 6 -k MAC
h -t 1.610790409 -s 3 -d 1 -p ack -e 118 -c 2 -a 0 -i 6 -k MAC
r -t 1.611735074 -s 1 -d 1 -p ack -e 60 -c 2 -a 0 -i 6 -k MAC
+ -t 1.611745074 -s 1 -d -1 -p ACK -e 38 -c 2 -a 0 -i 0 -k MAC 
- -t 1.611745074 -s 1 -d -1 -p ACK -e 38 -c 2 -a 0 -i 0 -k MAC
h -t 1.611745074 -s 1 -d -1 -p ACK -e 38 -c 2 -a 0 -i 0 -k MAC
r -t 1.611760074 -s 1 -d 1 -p ack -e 60 -c 2 -a 0 -i 6 -k AGT
+ -t 1.611760074 -s 1 -d -1 -p tcp -e 3040 -c 2 -a 0 -i 7 -k AGT 
- -t 1.611760074 -s 1 -d -1 -p tcp -e 3040 -c 2 -a 0 -i 7 -k AGT
h -t 1.611760074 -s 1 -d -1 -p tcp -e 3040 -c 2 -a 0 -i 7 -k AGT
+ -t 1.611760074 -s 1 -d 3 -p tcp -e 3060 -c 2 -a 0 -i 7 -k RTR 
- -t 1.611760074 -s 1 -d 3 -p tcp -e 3060 -c 2 -a 0 -i 7 -k RTR
h -t 1.611760074 -s 1 -d 3 -p tcp -e 3060 -c 2 -a 0 -i 7 -k RTR
+ -t 1.611760074 -s 1 -d -1 -p tcp -e 3040 -c 2 -a 0 -i 8 -k AGT 
- -t 1.611760074 -s 1 -d -1 -p tcp -e 3040 -c 2 -a 0 -i 8 -k AGT
h -t 1.611760074 -s 1 -d -1 -p tcp -e 3040 -c 2 -a 0 -i 8 -k AGT
+ -t 1.611760074 -s 1 -d 3 -p tcp -e 3060 -c 2 -a 0 -i 8 -k RTR 
- -t 1.611760074 -s 1 -d 3 -p tcp -e 3060 -c 2 -a 0 -i 8 -k RTR
h -t 1.611760074 -s 1 -d 3 -p tcp -e 3060 -c 2 -a 0 -i 8 -k RTR
r -t 1.612049738 -s 3 -d -1 -p ACK -e 38 -c 2 -a 0 -i 0 -k MAC
+ -t 1.612159074 -s 1 -d -1 -p RTS -e 44 -c 2 -a 0 -i 0 -k MAC 
- -t 1.612159074 -s 1 -d -1 -p RTS -e 44 -c 2 -a 0 -i 0 -k MAC
h -t 1.612159074 -s 1 -d -1 -p RTS -e 44 -c 2 -a 0 -i 0 -k MAC
r -t 1.612511738 -s 3 -d -1 -p RTS -e 44 -c 2 -a 0 -i 0 -k MAC
+ -t 1.612521738 -s 3 -d -1 -p CTS -e 38 -c 2 -a 0 -i 0 -k MAC 
- -t 1.612521738 -s 3 -d -1 -p CTS -e 38 -c 2 -a 0 -i 0 -k MAC
h -t 1.612521738 -s 3 -d -1 -p CTS -e 38 -c 2 -a 0 -i 0 -k MAC
r -t 1.612826403 -s 1 -d -1 -p CTS -e 38 -c 2 -a 0 -i 0 -k MAC
+ -t 1.612836403 -s 1 -d 3 -p tcp -e 3118 -c 2 -a 0 -i 7 -k MAC 
- -t 1.612836403 -s 1 -d 3 -p tcp -e 3118 -c 2 -a 0 -i 7 -k MAC
h -t 1.612836403 -s 1 -d 3 -p tcp -e 3118 -c 2 -a 0 -i 7 -k MAC
r -t 1.637781068 -s 3 -d 3 -p tcp -e 3060 -c 2 -a 0 -i 7 -k MAC
+ -t 1.637791068 -s 3 -d -1 -p ACK -e 38 -c 2 -a 0 -i 0 -k MAC 
- -t 1.637791068 -s 3 -d -1 -p ACK -e 38 -c 2 -a 0 -i 0 -k MAC
h -t 1.637791068 -s 3 -d -1 -p ACK -e 38 -c 2 -a 0 -i 0 -k MAC
r -t 1.637806068 -s 3 -d 3 -p tcp -e 3060 -c 2 -a 0 -i 7 -k AGT
+ -t 1.637806068 -s 3 -d -1 -p ack -e 40 -c 2 -a 0 -i 9 -k AGT 
- -t 1.637806068 -s 3 -d -1 -p ack -e 40 -c 2 -a 0 -i 9 -k AGT
h -t 1.637806068 -s 3 -d -1 -p ack -e 40 -c 2 -a 0 -i 9 -k AGT
+ -t 1.637806068 -s 3 -d 1 -p ack -e 60 -c 2 -a 0 -i 9 -k RTR 
- -t 1.637806068 -s 3 -d 1 -p ack -e 60 -c 2 -a 0 -i 9 -k RTR
h -t 1.637806068 -s 3 -d 1 -p ack -e 60 -c 2 -a 0 -i 9 -k RTR
r -t 1.638095732 -s 1 -d -1 -p ACK -e 38 -c 2 -a 0 -i 0 -k MAC
+ -t 1.638225068 -s 3 -d -1 -p RTS -e 44 -c 2 -a 0 -i 0 -k MAC 
- -t 1.638225068 -s 3 -d -1 -p RTS -e 44 -c 2 -a 0 -i 0 -k MAC
h -t 1.638225068 -s 3 -d -1 -p RTS -e 44 -c 2 -a 0 -i 0 -k MAC
+ -t 1.638225732 -s 1 -d -1 -p RTS -e 44 -c 2 -a 0 -i 0 -k MAC 
- -t 1.638225732 -s 1 -d -1 -p RTS -e 44 -c 2 -a 0 -i 0 -k MAC
h -t 1.638225732 -s 1 -d -1 -p RTS -e 44 -c 2 -a 0 -i 0 -k MAC
+ -t 1.638991732 -s 1 -d -1 -p RTS -e 44 -c 2 -a 0 -i 0 -k MAC 
- -t 1.638991732 -s 1 -d -1 -p RTS -e 44 -c 2 -a 0 -i 0 -k MAC
h -t 1.638991732 -s 1 -d -1 -p RTS -e 44 -c 2 -a 0 -i 0 -k MAC
r -t 1.639344397 -s 3 -d -1 -p RTS -e 44 -c 2 -a 0 -i 0 -k MAC
+ -t 1.639354397 -s 3 -d -1 -p CTS -e 38 -c 2 -a 0 -i 0 -k MAC 
- -t 1.639354397 -s 3 -d -1 -p CTS -e 38 -c 2 -a 0 -i 0 -k MAC
h -t 1.639354397 -s 3 -d -1 -p CTS -e 38 -c 2 -a 0 -i 0 -k MAC
r -t 1.639659062 -s 1 -d -1 -p CTS -e 38 -c 2 -a 0 -i 0 -k MAC
+ -t 1.639669062 -s 1 -d 3 -p tcp -e 3118 -c 2 -a 0 -i 8 -k MAC 
- -t 1.639669062 -s 1 -d 3 -p tcp -e 3118 -c 2 -a 0 -i 8 -k MAC
h -t 1.639669062 -s 1 -d 3 -p tcp -e 3118 -c 2 -a 0 -i 8 -k MAC
r -t 1.664613726 -s 3 -d 3 -p tcp -e 3060 -c 2 -a 0 -i 8 -k MAC
+ -t 1.664623726 -s 3 -d -1 -p ACK -e 38 -c 2 -a 0 -i 0 -k MAC 
- -t 1.664623726 -s 3 -d -1 -p ACK -e 38 -c 2 -a 0 -i 0 -k MAC
h -t 1.664623726 -s 3 -d -1 -p ACK -e 38 -c 2 -a 0 -i 0 -k MAC
r -t 1.664638726 -s 3 -d 3 -p tcp -e 3060 -c 2 -a 0 -i 8 -k AGT
+ -t 1.664638726 -s 3 -d -1 -p ack -e 40 -c 2 -a 0 -i 10 -k AGT 
- -t 1.664638726 -s 3 -d -1 -p ack -e 40 -c 2 -a 0 -i 10 -k AGT
h -t 1.664638726 -s 3 -d -1 -p ack -e 40 -c 2 -a 0 -i 10 -k AGT
+ -t 1.664638726 -s 3 -d 1 -p ack -e 60 -c 2 -a 0 -i 10 -k RTR 
- -t 1.664638726 -s 3 -d 1 -p ack -e 60 -c 2 -a 0 -i 10 -k RTR
h -t 1.664638726 -s 3 -d 1 -p ack -e 60 -c 2 -a 0 -i 10 -k RTR
r -t 1.664928391 -s 1 -d -1 -p ACK -e 38 -c 2 -a 0 -i 0 -k MAC
+ -t 1.666097726 -s 3 -d -1 -p RTS -e 44 -c 2 -a 0 -i 0 -k MAC 
- -t 1.666097726 -s 3 -d -1 -p RTS -e 44 -c 2 -a 0 -i 0 -k MAC
h -t 1.666097726 -s 3 -d -1 -p RTS -e 44 -c 2 -a 0 -i 0 -k MAC
r -t 1.666450391 -s 1 -d -1 -p RTS -e 44 -c 2 -a 0 -i 0 -k MAC
+ -t 1.666460391 -s 1 -d -1 -p CTS -e 38 -c 2 -a 0 -i 0 -k MAC 
- -t 1.666460391 -s 1 -d -1 -p CTS -e 38 -c 2 -a 0 -i 0 -k MAC
h -t 1.666460391 -s 1 -d -1 -p CTS -e 38 -c 2 -a 0 -i 0 -k MAC
r -t 1.666765056 -s 3 -d -1 -p CTS -e 38 -c 2 -a 0 -i 0 -k MAC
+ -t 1.666775056 -s 3 -d 1 -p ack -e 118 -c 2 -a 0 -i 9 -k MAC 
- -t 1.666775056 -s 3 -d 1 -p ack -e 118 -c 2 -a 0 -i 9 -k MAC
h -t 1.666775056 -s 3 -d 1 -p ack -e 118 -c 2 -a 0 -i 9 -k MAC
r -t 1.667719721 -s 1 -d 1 -p ack -e 60 -c 2 -a 0 -i 9 -k MAC
+ -t 1.667729721 -s 1 -d -1 -p ACK -e 38 -c 2 -a 0 -i 0 -k MAC 
- -t 1.667729721 -s 1 -d -1 -p ACK -e 38 -c 2 -a 0 -i 0 -k MAC
h -t 1.667729721 -s 1 -d -1 -p ACK -e 38 -c 2 -a 0 -i 0 -k MAC
r -t 1.667744721 -s 1 -d 1 -p ack -e 60 -c 2 -a 0 -i 9 -k AGT
+ -t 1.667744721 -s 1 -d -1 -p tcp -e 3040 -c 2 -a 0 -i 11 -k AGT 
- -t 1.667744721 -s 1 -d -1 -p tcp -e 3040 -c 2 -a 0 -i 11 -k AGT
h -t 1.667744721 -s 1 -d -1 -p tcp -e 3040 -c 2 -a 0 -i 11 -k AGT
+ -t 1.667744721 -s 1 -d 3 -p tcp -e 3060 -c 2 -a 0 -i 11 -k RTR 
- -t 1.667744721 -s 1 -d 3 -p tcp -e 3060 -c 2 -a 0 -i 11 -k RTR
h -t 1.667744721 -s 1 -d 3 -p tcp -e 3060 -c 2 -a 0 -i 11 -k RTR
+ -t 1.667744721 -s 1 -d -1 -p tcp -e 3040 -c 2 -a 0 -i 12 -k AGT 
- -t 1.667744721 -s 1 -d -1 -p tcp -e 3040 -c 2 -a 0 -i 12 -k AGT
h -t 1.667744721 -s 1 -d -1 -p tcp -e 3040 -c 2 -a 0 -i 12 -k AGT
+ -t 1.667744721 -s 1 -d 3 -p tcp -e 3060 -c 2 -a 0 -i 12 -k RTR 
- -t 1.667744721 -s 1 -d 3 -p tcp -e 3060 -c 2 -a 0 -i 12 -k RTR
h -t 1.667744721 -s 1 -d 3 -p tcp -e 3060 -c 2 -a 0 -i 12 -k RTR
r -t 1.668034386 -s 3 -d -1 -p ACK -e 38 -c 2 -a 0 -i 0 -k MAC
+ -t 1.668304386 -s 3 -d -1 -p RTS -e 44 -c 2 -a 0 -i 0 -k MAC 
- -t 1.668304386 -s 3 -d -1 -p RTS -e 44 -c 2 -a 0 -i 0 -k MAC
h -t 1.668304386 -s 3 -d -1 -p RTS -e 44 -c 2 -a 0 -i 0 -k MAC
r -t 1.668657051 -s 1 -d -1 -p RTS -e 44 -c 2 -a 0 -i 0 -k MAC
+ -t 1.668667051 -s 1 -d -1 -p CTS -e 38 -c 2 -a 0 -i 0 -k MAC 
- -t 1.668667051 -s 1 -d -1 -p CTS -e 38 -c 2 -a 0 -i 0 -k MAC
h -t 1.668667051 -s 1 -d -1 -p CTS -e 38 -c 2 -a 0 -i 0 -k MAC
r -t 1.668971715 -s 3 -d -1 -p CTS -e 38 -c 2 -a 0 -i 0 -k MAC
+ -t 1.668981715 -s 3 -d 1 -p ack -e 118 -c 2 -a 0 -i 10 -k MAC 
- -t 1.668981715 -s 3 -d 1 -p ack -e 118 -c 2 -a 0 -i 10 -k MAC
h -t 1.668981715 -s 3 -d 1 -p ack -e 118 -c 2 -a 0 -i 10 -k MAC
r -t 1.669926380 -s 1 -d 1 -p ack -e 60 -c 2 -a 0 -i 10 -k MAC
+ -t 1.669936380 -s 1 -d -1 -p ACK -e 38 -c 2 -a 0 -i 0 -k MAC 
- -t 1.669936380 -s 1 -d -1 -p ACK -e 38 -c 2 -a 0 -i 0 -k MAC
h -t 1.669936380 -s 1 -d -1 -p ACK -e 38 -c 2 -a 0 -i 0 -k MAC
r -t 1.669951380 -s 1 -d 1 -p ack -e 60 -c 2 -a 0 -i 10 -k AGT
+ -t 1.669951380 -s 1 -d -1 -p tcp -e 3040 -c 2 -a 0 -i 13 -k AGT 
- -t 1.669951380 -s 1 -d -1 -p tcp -e 3040 -c 2 -a 0 -i 13 -k AGT
h -t 1.669951380 -s 1 -d -1 -p tcp -e 3040 -c 2 -a 0 -i 13 -k AGT
+ -t 1.669951380 -s 1 -d 3 -p tcp -e 3060 -c 2 -a 0 -i 13 -k RTR 
- -t 1.669951380 -s 1 -d 3 -p tcp -e 3060 -c 2 -a 0 -i 13 -k RTR
h -t 1.669951380 -s 1 -d 3 -p tcp -e 3060 -c 2 -a 0 -i 13 -k RTR
+ -t 1.669951380 -s 1 -d -1 -p tcp -e 3040 -c 2 -a 0 -i 14 -k AGT 
- -t 1.669951380 -s 1 -d -1 -p tcp -e 3040 -c 2 -a 0 -i 14 -k AGT
h -t 1.669951380 -s 1 -d -1 -p tcp -e 3040 -c 2 -a 0 -i 14 -k AGT
+ -t 1.669951380 -s 1 -d 3 -p tcp -e 3060 -c 2 -a 0 -i 14 -k RTR 
- -t 1.669951380 -s 1 -d 3 -p tcp -e 3060 -c 2 -a 0 -i 14 -k RTR
h -t 1.669951380 -s 1 -d 3 -p tcp -e 3060 -c 2 -a 0 -i 14 -k RTR
r -t 1.670241045 -s 3 -d -1 -p ACK -e 38 -c 2 -a 0 -i 0 -k MAC
+ -t 1.670590380 -s 1 -d -1 -p RTS -e 44 -c 2 -a 0 -i 0 -k MAC 
- -t 1.670590380 -s 1 -d -1 -p RTS -e 44 -c 2 -a 0 -i 0 -k MAC
h -t 1.670590380 -s 1 -d -1 -p RTS -e 44 -c 2 -a 0 -i 0 -k MAC
r -t 1.670943045 -s 3 -d -1 -p RTS -e 44 -c 2 -a 0 -i 0 -k MAC
+ -t 1.670953045 -s 3 -d -1 -p CTS -e 38 -c 2 -a 0 -i 0 -k MAC 
- -t 1.670953045 -s 3 -d -1 -p CTS -e 38 -c 2 -a 0 -i 0 -k MAC
h -t 1.670953045 -s 3 -d -1 -p CTS -e 38 -c 2 -a 0 -i 0 -k MAC
r -t 1.671257710 -s 1 -d -1 -p CTS -e 38 -c 2 -a 0 -i 0 -k MAC
+ -t 1.671267710 -s 1 -d 3 -p tcp -e 3118 -c 2 -a 0 -i 11 -k MAC 
- -t 1.671267710 -s 1 -d 3 -p tcp -e 3118 -c 2 -a 0 -i 11 -k MAC
h -t 1.671267710 -s 1 -d 3 -p tcp -e 3118 -c 2 -a 0 -i 11 -k MAC
r -t 1.696212375 -s 3 -d 3 -p tcp -e 3060 -c 2 -a 0 -i 11 -k MAC
+ -t 1.696222375 -s 3 -d -1 -p ACK -e 38 -c 2 -a 0 -i 0 -k MAC 
- -t 1.696222375 -s 3 -d -1 -p ACK -e 38 -c 2 -a 0 -i 0 -k MAC
h -t 1.696222375 -s 3 -d -1 -p ACK -e 38 -c 2 -a 0 -i 0 -k MAC
r -t 1.696237375 -s 3 -d 3 -p tcp -e 3060 -c 2 -a 0 -i 11 -k AGT
+ -t 1.696237375 -s 3 -d -1 -p ack -e 40 -c 2 -a 0 -i 15 -k AGT 
- -t 1.696237375 -s 3 -d -1 -p ack -e 40 -c 2 -a 0 -i 15 -k AGT
h -t 1.696237375 -s 3 -d -1 -p ack -e 40 -c 2 -a 0 -i 15 -k AGT
+ -t 1.696237375 -s 3 -d 1 -p ack -e 60 -c 2 -a 0 -i 15 -k RTR 
- -t 1.696237375 -s 3 -d 1 -p ack -e 60 -c 2 -a 0 -i 15 -k RTR
h -t 1.696237375 -s 3 -d 1 -p ack -e 60 -c 2 -a 0 -i 15 -k RTR
r -t 1.696527040 -s 1 -d -1 -p ACK -e 38 -c 2 -a 0 -i 0 -k MAC
+ -t 1.696637040 -s 1 -d -1 -p RTS -e 44 -c 2 -a 0 -i 0 -k MAC 
- -t 1.696637040 -s 1 -d -1 -p RTS -e 44 -c 2 -a 0 -i 0 -k MAC
h -t 1.696637040 -s 1 -d -1 -p RTS -e 44 -c 2 -a 0 -i 0 -k MAC
r -t 1.696989705 -s 3 -d -1 -p RTS -e 44 -c 2 -a 0 -i 0 -k MAC
+ -t 1.696999705 -s 3 -d -1 -p CTS -e 38 -c 2 -a 0 -i 0 -k MAC 
- -t 1.696999705 -s 3 -d -1 -p CTS -e 38 -c 2 -a 0 -i 0 -k MAC
h -t 1.696999705 -s 3 -d -1 -p CTS -e 38 -c 2 -a 0 -i 0 -k MAC
r -t 1.697304370 -s 1 -d -1 -p CTS -e 38 -c 2 -a 0 -i 0 -k MAC
+ -t 1.697314370 -s 1 -d 3 -p tcp -e 3118 -c 2 -a 0 -i 12 -k MAC 
- -t 1.697314370 -s 1 -d 3 -p tcp -e 3118 -c 2 -a 0 -i 12 -k MAC
h -t 1.697314370 -s 1 -d 3 -p tcp -e 3118 -c 2 -a 0 -i 12 -k MAC
r -t 1.722259035 -s 3 -d 3 -p tcp -e 3060 -c 2 -a 0 -i 12 -k MAC
+ -t 1.722269035 -s 3 -d -1 -p ACK -e 38 -c 2 -a 0 -i 0 -k MAC 
- -t 1.722269035 -s 3 -d -1 -p ACK -e 38 -c 2 -a 0 -i 0 -k MAC
h -t 1.722269035 -s 3 -d -1 -p ACK -e 38 -c 2 -a 0 -i 0 -k MAC
r -t 1.722284035 -s 3 -d 3 -p tcp -e 3060 -c 2 -a 0 -i 12 -k AGT
+ -t 1.722284035 -s 3 -d -1 -p ack -e 40 -c 2 -a 0 -i 16 -k AGT 
- -t 1.722284035 -s 3 -d -1 -p ack -e 40 -c 2 -a 0 -i 16 -k AGT
h -t 1.722284035 -s 3 -d -1 -p ack -e 40 -c 2 -a 0 -i 16 -k AGT
+ -t 1.722284035 -s 3 -d 1 -p ack -e 60 -c 2 -a 0 -i 16 -k RTR 
- -t 1.722284035 -s 3 -d 1 -p ack -e 60 -c 2 -a 0 -i 16 -k RTR
h -t 1.722284035 -s 3 -d 1 -p ack -e 60 -c 2 -a 0 -i 16 -k RTR
r -t 1.722573700 -s 1 -d -1 -p ACK -e 38 -c 2 -a 0 -i 0 -k MAC
+ -t 1.722743700 -s 1 -d -1 -p RTS -e 44 -c 2 -a 0 -i 0 -k MAC 
- -t 1.722743700 -s 1 -d -1 -p RTS -e 44 -c 2 -a 0 -i 0 -k MAC
h -t 1.722743700 -s 1 -d -1 -p RTS -e 44 -c 2 -a 0 -i 0 -k MAC
r -t 1.723096365 -s 3 -d -1 -p RTS -e 44 -c 2 -a 0 -i 0 -k MAC
+ -t 1.723106365 -s 3 -d -1 -p CTS -e 38 -c 2 -a 0 -i 0 -k MAC 
- -t 1.723106365 -s 3 -d -1 -p CTS -e 38 -c 2 -a 0 -i 0 -k MAC
h -t 1.723106365 -s 3 -d -1 -p CTS -e 38 -c 2 -a 0 -i 0 -k MAC
r -t 1.723411030 -s 1 -d -1 -p CTS -e 38 -c 2 -a 0 -i 0 -k MAC
+ -t 1.723421030 -s 1 -d 3 -p tcp -e 3118 -c 2 -a 0 -i 13 -k MAC 
- -t 1.723421030 -s 1 -d 3 -p tcp -e 3118 -c 2 -a 0 -i 13 -k MAC
h -t 1.723421030 -s 1 -d 3 -p tcp -e 3118 -c 2 -a 0 -i 13 -k MAC
r -t 1.748365695 -s 3 -d 3 -p tcp -e 3060 -c 2 -a 0 -i 13 -k MAC
+ -t 1.748375695 -s 3 -d -1 -p ACK -e 38 -c 2 -a 0 -i 0 -k MAC 
- -t 1.748375695 -s 3 -d -1 -p ACK -e 38 -c 2 -a 0 -i 0 -k MAC
h -t 1.748375695 -s 3 -d -1 -p ACK -e 38 -c 2 -a 0 -i 0 -k MAC
r -t 1.748390695 -s 3 -d 3 -p tcp -e 3060 -c 2 -a 0 -i 13 -k AGT
+ -t 1.748390695 -s 3 -d -1 -p ack -e 40 -c 2 -a 0 -i 17 -k AGT 
- -t 1.748390695 -s 3 -d -1 -p ack -e 40 -c 2 -a 0 -i 17 -k AGT
h -t 1.748390695 -s 3 -d -1 -p ack -e 40 -c 2 -a 0 -i 17 -k AGT
+ -t 1.748390695 -s 3 -d 1 -p ack -e 60 -c 2 -a 0 -i 17 -k RTR 
- -t 1.748390695 -s 3 -d 1 -p ack -e 60 -c 2 -a 0 -i 17 -k RTR
h -t 1.748390695 -s 3 -d 1 -p ack -e 60 -c 2 -a 0 -i 17 -k RTR
r -t 1.748680360 -s 1 -d -1 -p ACK -e 38 -c 2 -a 0 -i 0 -k MAC
+ -t 1.749070360 -s 1 -d -1 -p RTS -e 44 -c 2 -a 0 -i 0 -k MAC 
- -t 1.749070360 -s 1 -d -1 -p RTS -e 44 -c 2 -a 0 -i 0 -k MAC
h -t 1.749070360 -s 1 -d -1 -p RTS -e 44 -c 2 -a 0 -i 0 -k MAC
r -t 1.749423026 -s 3 -d -1 -p RTS -e 44 -c 2 -a 0 -i 0 -k MAC
+ -t 1.749433026 -s 3 -d -1 -p CTS -e 38 -c 2 -a 0 -i 0 -k MAC 
- -t 1.749433026 -s 3 -d -1 -p CTS -e 38 -c 2 -a 0 -i 0 -k MAC
h -t 1.749433026 -s 3 -d -1 -p CTS -e 38 -c 2 -a 0 -i 0 -k MAC
r -t 1.749737691 -s 1 -d -1 -p CTS -e 38 -c 2 -a 0 -i 0 -k MAC
+ -t 1.749747691 -s 1 -d 3 -p tcp -e 3118 -c 2 -a 0 -i 14 -k MAC 
- -t 1.749747691 -s 1 -d 3 -p tcp -e 3118 -c 2 -a 0 -i 14 -k MAC
h -t 1.749747691 -s 1 -d 3 -p tcp -e 3118 -c 2 -a 0 -i 14 -k MAC
r -t 1.774692356 -s 3 -d 3 -p tcp -e 3060 -c 2 -a 0 -i 14 -k MAC
+ -t 1.774702356 -s 3 -d -1 -p ACK -e 38 -c 2 -a 0 -i 0 -k MAC 
- -t 1.774702356 -s 3 -d -1 -p ACK -e 38 -c 2 -a 0 -i 0 -k MAC
h -t 1.774702356 -s 3 -d -1 -p ACK -e 38 -c 2 -a 0 -i 0 -k MAC
r -t 1.774717356 -s 3 -d 3 -p tcp -e 3060 -c 2 -a 0 -i 14 -k AGT
+ -t 1.774717356 -s 3 -d -1 -p ack -e 40 -c 2 -a 0 -i 18 -k AGT 
- -t 1.774717356 -s 3 -d -1 -p ack -e 40 -c 2 -a 0 -i 18 -k AGT
h -t 1.774717356 -s 3 -d -1 -p ack -e 40 -c 2 -a 0 -i 18 -k AGT
+ -t 1.774717356 -s 3 -d 1 -p ack -e 60 -c 2 -a 0 -i 18 -k RTR 
- -t 1.774717356 -s 3 -d 1 -p ack -e 60 -c 2 -a 0 -i 18 -k RTR
h -t 1.774717356 -s 3 -d 1 -p ack -e 60 -c 2 -a 0 -i 18 -k RTR
r -t 1.775007022 -s 1 -d -1 -p ACK -e 38 -c 2 -a 0 -i 0 -k MAC
+ -t 1.775116356 -s 3 -d -1 -p RTS -e 44 -c 2 -a 0 -i 0 -k MAC 
- -t 1.775116356 -s 3 -d -1 -p RTS -e 44 -c 2 -a 0 -i 0 -k MAC
h -t 1.775116356 -s 3 -d -1 -p RTS -e 44 -c 2 -a 0 -i 0 -k MAC
r -t 1.775469022 -s 1 -d -1 -p RTS -e 44 -c 2 -a 0 -i 0 -k MAC
+ -t 1.775479022 -s 1 -d -1 -p CTS -e 38 -c 2 -a 0 -i 0 -k MAC 
- -t 1.775479022 -s 1 -d -1 -p CTS -e 38 -c 2 -a 0 -i 0 -k MAC
h -t 1.775479022 -s 1 -d -1 -p CTS -e 38 -c 2 -a 0 -i 0 -k MAC
r -t 1.775783687 -s 3 -d -1 -p CTS -e 38 -c 2 -a 0 -i 0 -k MAC
+ -t 1.775793687 -s 3 -d 1 -p ack -e 118 -c 2 -a 0 -i 15 -k MAC 
- -t 1.775793687 -s 3 -d 1 -p ack -e 118 -c 2 -a 0 -i 15 -k MAC
h -t 1.775793687 -s 3 -d 1 -p ack -e 118 -c 2 -a 0 -i 15 -k MAC
r -t 1.776738352 -s 1 -d 1 -p ack -e 60 -c 2 -a 0 -i 15 -k MAC
+ -t 1.776748352 -s 1 -d -1 -p ACK -e 38 -c 2 -a 0 -i 0 -k MAC 
- -t 1.776748352 -s 1 -d -1 -p ACK -e 38 -c 2 -a 0 -i 0 -k MAC
h -t 1.776748352 -s 1 -d -1 -p ACK -e 38 -c 2 -a 0 -i 0 -k MAC
r -t 1.776763352 -s 1 -d 1 -p ack -e 60 -c 2 -a 0 -i 15 -k AGT
+ -t 1.776763352 -s 1 -d -1 -p tcp -e 3040 -c 2 -a 0 -i 19 -k AGT 
- -t 1.776763352 -s 1 -d -1 -p tcp -e 3040 -c 2 -a 0 -i 19 -k AGT
h -t 1.776763352 -s 1 -d -1 -p tcp -e 3040 -c 2 -a 0 -i 19 -k AGT
+ -t 1.776763352 -s 1 -d 3 -p tcp -e 3060 -c 2 -a 0 -i 19 -k RTR 
- -t 1.776763352 -s 1 -d 3 -p tcp -e 3060 -c 2 -a 0 -i 19 -k RTR
h -t 1.776763352 -s 1 -d 3 -p tcp -e 3060 -c 2 -a 0 -i 19 -k RTR
+ -t 1.776763352 -s 1 -d -1 -p tcp -e 3040 -c 2 -a 0 -i 20 -k AGT 
- -t 1.776763352 -s 1 -d -1 -p tcp -e 3040 -c 2 -a 0 -i 20 -k AGT
h -t 1.776763352 -s 1 -d -1 -p tcp -e 3040 -c 2 -a 0 -i 20 -k AGT
+ -t 1.776763352 -s 1 -d 3 -p tcp -e 3060 -c 2 -a 0 -i 20 -k RTR 
- -t 1.776763352 -s 1 -d 3 -p tcp -e 3060 -c 2 -a 0 -i 20 -k RTR
h -t 1.776763352 -s 1 -d 3 -p tcp -e 3060 -c 2 -a 0 -i 20 -k RTR
r -t 1.777053018 -s 3 -d -1 -p ACK -e 38 -c 2 -a 0 -i 0 -k MAC
+ -t 1.777383018 -s 3 -d -1 -p RTS -e 44 -c 2 -a 0 -i 0 -k MAC 
- -t 1.777383018 -s 3 -d -1 -p RTS -e 44 -c 2 -a 0 -i 0 -k MAC
h -t 1.777383018 -s 3 -d -1 -p RTS -e 44 -c 2 -a 0 -i 0 -k MAC
r -t 1.777735683 -s 1 -d -1 -p RTS -e 44 -c 2 -a 0 -i 0 -k MAC
+ -t 1.777745683 -s 1 -d -1 -p CTS -e 38 -c 2 -a 0 -i 0 -k MAC 
- -t 1.777745683 -s 1 -d -1 -p CTS -e 38 -c 2 -a 0 -i 0 -k MAC
h -t 1.777745683 -s 1 -d -1 -p CTS -e 38 -c 2 -a 0 -i 0 -k MAC
r -t 1.778050348 -s 3 -d -1 -p CTS -e 38 -c 2 -a 0 -i 0 -k MAC
+ -t 1.778060348 -s 3 -d 1 -p ack -e 118 -c 2 -a 0 -i 16 -k MAC 
- -t 1.778060348 -s 3 -d 1 -p ack -e 118 -c 2 -a 0 -i 16 -k MAC
h -t 1.778060348 -s 3 -d 1 -p ack -e 118 -c 2 -a 0 -i 16 -k MAC
r -t 1.779005014 -s 1 -d 1 -p ack -e 60 -c 2 -a 0 -i 16 -k MAC
+ -t 1.779015014 -s 1 -d -1 -p ACK -e 38 -c 2 -a 0 -i 0 -k MAC 
- -t 1.779015014 -s 1 -d -1 -p ACK -e 38 -c 2 -a 0 -i 0 -k MAC
h -t 1.779015014 -s 1 -d -1 -p ACK -e 38 -c 2 -a 0 -i 0 -k MAC
r -t 1.779030014 -s 1 -d 1 -p ack -e 60 -c 2 -a 0 -i 16 -k AGT
+ -t 1.779030014 -s 1 -d -1 -p tcp -e 3040 -c 2 -a 0 -i 21 -k AGT 
- -t 1.779030014 -s 1 -d -1 -p tcp -e 3040 -c 2 -a 0 -i 21 -k AGT
h -t 1.779030014 -s 1 -d -1 -p tcp -e 3040 -c 2 -a 0 -i 21 -k AGT
+ -t 1.779030014 -s 1 -d 3 -p tcp -e 3060 -c 2 -a 0 -i 21 -k RTR 
- -t 1.779030014 -s 1 -d 3 -p tcp -e 3060 -c 2 -a 0 -i 21 -k RTR
h -t 1.779030014 -s 1 -d 3 -p tcp -e 3060 -c 2 -a 0 -i 21 -k RTR
+ -t 1.779030014 -s 1 -d -1 -p tcp -e 3040 -c 2 -a 0 -i 22 -k AGT 
- -t 1.779030014 -s 1 -d -1 -p tcp -e 3040 -c 2 -a 0 -i 22 -k AGT
h -t 1.779030014 -s 1 -d -1 -p tcp -e 3040 -c 2 -a 0 -i 22 -k AGT
+ -t 1.779030014 -s 1 -d 3 -p tcp -e 3060 -c 2 -a 0 -i 22 -k RTR 
- -t 1.779030014 -s 1 -d 3 -p tcp -e 3060 -c 2 -a 0 -i 22 -k RTR
h -t 1.779030014 -s 1 -d 3 -p tcp -e 3060 -c 2 -a 0 -i 22 -k RTR
r -t 1.779319679 -s 3 -d -1 -p ACK -e 38 -c 2 -a 0 -i 0 -k MAC
+ -t 1.779529014 -s 1 -d -1 -p RTS -e 44 -c 2 -a 0 -i 0 -k MAC 
- -t 1.779529014 -s 1 -d -1 -p RTS -e 44 -c 2 -a 0 -i 0 -k MAC
h -t 1.779529014 -s 1 -d -1 -p RTS -e 44 -c 2 -a 0 -i 0 -k MAC
r -t 1.779881679 -s 3 -d -1 -p RTS -e 44 -c 2 -a 0 -i 0 -k MAC
+ -t 1.779891679 -s 3 -d -1 -p CTS -e 38 -c 2 -a 0 -i 0 -k MAC 
- -t 1.779891679 -s 3 -d -1 -p CTS -e 38 -c 2 -a 0 -i 0 -k MAC
h -t 1.779891679 -s 3 -d -1 -p CTS -e 38 -c 2 -a 0 -i 0 -k MAC
r -t 1.780196345 -s 1 -d -1 -p CTS -e 38 -c 2 -a 0 -i 0 -k MAC
+ -t 1.780206345 -s 1 -d 3 -p tcp -e 3118 -c 2 -a 0 -i 19 -k MAC 
- -t 1.780206345 -s 1 -d 3 -p tcp -e 3118 -c 2 -a 0 -i 19 -k MAC
h -t 1.780206345 -s 1 -d 3 -p tcp -e 3118 -c 2 -a 0 -i 19 -k MAC
r -t 1.805151010 -s 3 -d 3 -p tcp -e 3060 -c 2 -a 0 -i 19 -k MAC
+ -t 1.805161010 -s 3 -d -1 -p ACK -e 38 -c 2 -a 0 -i 0 -k MAC 
- -t 1.805161010 -s 3 -d -1 -p ACK -e 38 -c 2 -a 0 -i 0 -k MAC
h -t 1.805161010 -s 3 -d -1 -p ACK -e 38 -c 2 -a 0 -i 0 -k MAC
r -t 1.805176010 -s 3 -d 3 -p tcp -e 3060 -c 2 -a 0 -i 19 -k AGT
+ -t 1.805176010 -s 3 -d -1 -p ack -e 40 -c 2 -a 0 -i 23 -k AGT 
- -t 1.805176010 -s 3 -d -1 -p ack -e 40 -c 2 -a 0 -i 23 -k AGT
h -t 1.805176010 -s 3 -d -1 -p ack -e 40 -c 2 -a 0 -i 23 -k AGT
+ -t 1.805176010 -s 3 -d 1 -p ack -e 60 -c 2 -a 0 -i 23 -k RTR 
- -t 1.805176010 -s 3 -d 1 -p ack -e 60 -c 2 -a 0 -i 23 -k RTR
h -t 1.805176010 -s 3 -d 1 -p ack -e 60 -c 2 -a 0 -i 23 -k RTR
r -t 1.805465675 -s 1 -d -1 -p ACK -e 38 -c 2 -a 0 -i 0 -k MAC
+ -t 1.805535010 -s 3 -d -1 -p RTS -e 44 -c 2 -a 0 -i 0 -k MAC 
- -t 1.805535010 -s 3 -d -1 -p RTS -e 44 -c 2 -a 0 -i 0 -k MAC
h -t 1.805535010 -s 3 -d -1 -p RTS -e 44 -c 2 -a 0 -i 0 -k MAC
r -t 1.805887675 -s 1 -d -1 -p RTS -e 44 -c 2 -a 0 -i 0 -k MAC
+ -t 1.805897675 -s 1 -d -1 -p CTS -e 38 -c 2 -a 0 -i 0 -k MAC 
- -t 1.805897675 -s 1 -d -1 -p CTS -e 38 -c 2 -a 0 -i 0 -k MAC
h -t 1.805897675 -s 1 -d -1 -p CTS -e 38 -c 2 -a 0 -i 0 -k MAC
r -t 1.806202341 -s 3 -d -1 -p CTS -e 38 -c 2 -a 0 -i 0 -k MAC
+ -t 1.806212341 -s 3 -d 1 -p ack -e 118 -c 2 -a 0 -i 17 -k MAC 
- -t 1.806212341 -s 3 -d 1 -p ack -e 118 -c 2 -a 0 -i 17 -k MAC
h -t 1.806212341 -s 3 -d 1 -p ack -e 118 -c 2 -a 0 -i 17 -k MAC
r -t 1.807157007 -s 1 -d 1 -p ack -e 60 -c 2 -a 0 -i 17 -k MAC
+ -t 1.807167007 -s 1 -d -1 -p ACK -e 38 -c 2 -a 0 -i 0 -k MAC 
- -t 1.807167007 -s 1 -d -1 -p ACK -e 38 -c 2 -a 0 -i 0 -k MAC
h -t 1.807167007 -s 1 -d -1 -p ACK -e 38 -c 2 -a 0 -i 0 -k MAC
r -t 1.807182007 -s 1 -d 1 -p ack -e 60 -c 2 -a 0 -i 17 -k AGT
+ -t 1.807182007 -s 1 -d -1 -p tcp -e 3040 -c 2 -a 0 -i 24 -k AGT 
- -t 1.807182007 -s 1 -d -1 -p tcp -e 3040 -c 2 -a 0 -i 24 -k AGT
h -t 1.807182007 -s 1 -d -1 -p tcp -e 3040 -c 2 -a 0 -i 24 -k AGT
+ -t 1.807182007 -s 1 -d 3 -p tcp -e 3060 -c 2 -a 0 -i 24 -k RTR 
- -t 1.807182007 -s 1 -d 3 -p tcp -e 3060 -c 2 -a 0 -i 24 -k RTR
h -t 1.807182007 -s 1 -d 3 -p tcp -e 3060 -c 2 -a 0 -i 24 -k RTR
+ -t 1.807182007 -s 1 -d -1 -p tcp -e 3040 -c 2 -a 0 -i 25 -k AGT 
- -t 1.807182007 -s 1 -d -1 -p tcp -e 3040 -c 2 -a 0 -i 25 -k AGT
h -t 1.807182007 -s 1 -d -1 -p tcp -e 3040 -c 2 -a 0 -i 25 -k AGT
+ -t 1.807182007 -s 1 -d 3 -p tcp -e 3060 -c 2 -a 0 -i 25 -k RTR 
- -t 1.807182007 -s 1 -d 3 -p tcp -e 3060 -c 2 -a 0 -i 25 -k RTR
h -t 1.807182007 -s 1 -d 3 -p tcp -e 3060 -c 2 -a 0 -i 25 -k RTR
r -t 1.807471672 -s 3 -d -1 -p ACK -e 38 -c 2 -a 0 -i 0 -k MAC
+ -t 1.807781007 -s 1 -d -1 -p RTS -e 44 -c 2 -a 0 -i 0 -k MAC 
- -t 1.807781007 -s 1 -d -1 -p RTS -e 44 -c 2 -a 0 -i 0 -k MAC
h -t 1.807781007 -s 1 -d -1 -p RTS -e 44 -c 2 -a 0 -i 0 -k MAC
r -t 1.808133672 -s 3 -d -1 -p RTS -e 44 -c 2 -a 0 -i 0 -k MAC