s 0.036574082 _0_ RTR  --- 0 message 32 [0 0 0 0] ------- [0:255 -1:255 32 0] 
s 0.037009082 _0_ MAC  --- 0 message 90 [0 ffffffff 0 800] ------- [0:255 -1:255 32 0] 
r 0.037729636 _1_ MAC  --- 0 message 32 [0 ffffffff 0 800] ------- [0:255 -1:255 32 0] 
r 0.037729636 _3_ MAC  --- 0 message 32 [0 ffffffff 0 800] ------- [0:255 -1:255 32 0] 
r 0.037729848 _2_ MAC  --- 0 message 32 [0 ffffffff 0 800] ------- [0:255 -1:255 32 0] 
r 0.037754636 _1_ RTR  --- 0 message 32 [0 ffffffff 0 800] ------- [0:255 -1:255 32 0] 
r 0.037754636 _3_ RTR  --- 0 message 32 [0 ffffffff 0 800] ------- [0:255 -1:255 32 0] 
r 0.037754848 _2_ RTR  --- 0 message 32 [0 ffffffff 0 800] ------- [0:255 -1:255 32 0] 
s 0.184608578 _1_ RTR  --- 1 message 32 [0 0 0 0] ------- [1:255 -1:255 32 0] 
s 0.185223578 _1_ MAC  --- 1 message 90 [0 ffffffff 1 800] ------- [1:255 -1:255 32 0] 
r 0.185943991 _2_ MAC  --- 1 message 32 [0 ffffffff 1 800] ------- [1:255 -1:255 32 0] 
r 0.185944132 _0_ MAC  --- 1 message 32 [0 ffffffff 1 800] ------- [1:255 -1:255 32 0] 
r 0.185944240 _3_ MAC  --- 1 message 32 [0 ffffffff 1 800] ------- [1:255 -1:255 32 0] 
r 0.185968991 _2_ RTR  --- 1 message 32 [0 ffffffff 1 800] ------- [1:255 -1:255 32 0] 
r 0.185969132 _0_ RTR  --- 1 message 32 [0 ffffffff 1 800] ------- [1:255 -1:255 32 0] 
r 0.185969240 _3_ RTR  --- 1 message 32 [0 ffffffff 1 800] ------- [1:255 -1:255 32 0] 
s 0.627061626 _4_ RTR  --- 2 message 32 [0 0 0 0] ------- [4:255 -1:255 32 0] 
s 0.627296626 _4_ MAC  --- 2 message 90 [0 ffffffff 4 800] ------- [4:255 -1:255 32 0] 
r 0.628017117 _3_ MAC  --- 2 message 32 [0 ffffffff 4 800] ------- [4:255 -1:255 32 0] 
r 0.628017255 _2_ MAC  --- 2 message 32 [0 ffffffff 4 800] ------- [4:255 -1:255 32 0] 
r 0.628042117 _3_ RTR  --- 2 message 32 [0 ffffffff 4 800] ------- [4:255 -1:255 32 0] 
r 0.628042255 _2_ RTR  --- 2 message 32 [0 ffffffff 4 800] ------- [4:255 -1:255 32 0] 
s 0.883288153 _2_ RTR  --- 3 message 32 [0 0 0 0] ------- [2:255 -1:255 32 0] 
s 0.883563153 _2_ MAC  --- 3 message 90 [0 ffffffff 2 800] ------- [2:255 -1:255 32 0] 
r 0.884283566 _1_ MAC  --- 3 message 32 [0 ffffffff 2 800] ------- [2:255 -1:255 32 0] 
r 0.884283663 _3_ MAC  --- 3 message 32 [0 ffffffff 2 800] ------- [2:255 -1:255 32 0] 
r 0.884283782 _4_ MAC  --- 3 message 32 [0 ffffffff 2 800] ------- [2:255 -1:255 32 0] 
r 0.884283919 _0_ MAC  --- 3 message 32 [0 ffffffff 2 800] ------- [2:255 -1:255 32 0] 
r 0.884308566 _1_ RTR  --- 3 message 32 [0 ffffffff 2 800] ------- [2:255 -1:255 32 0] 
r 0.884308663 _3_ RTR  --- 3 message 32 [0 ffffffff 2 800] ------- [2:255 -1:255 32 0] 
r 0.884308782 _4_ RTR  --- 3 message 32 [0 ffffffff 2 800] ------- [2:255 -1:255 32 0] 
r 0.884308919 _0_ RTR  --- 3 message 32 [0 ffffffff 2 800] ------- [2:255 -1:255 32 0] 
M 1.00000 1 (410.00, 361.00, 0.00), (500.00, 300.00), 10.00
s 1.000000000 _1_ AGT  --- 4 tcp 40 [0 0 0 0] ------- [1:0 3:0 32 0] [0 0] 0 0
r 1.000000000 _1_ RTR  --- 4 tcp 40 [0 0 0 0] ------- [1:0 3:0 32 0] [0 0] 0 0
s 1.602397764 _3_ RTR  --- 5 message 32 [0 0 0 0] ------- [3:255 -1:255 32 0] 
s 1.602912764 _3_ MAC  --- 5 message 90 [0 ffffffff 3 800] ------- [3:255 -1:255 32 0] 
r 1.603633255 _4_ MAC  --- 5 message 32 [0 ffffffff 3 800] ------- [3:255 -1:255 32 0] 
r 1.603633274 _2_ MAC  --- 5 message 32 [0 ffffffff 3 800] ------- [3:255 -1:255 32 0] 
r 1.603633318 _0_ MAC  --- 5 message 32 [0 ffffffff 3 800] ------- [3:255 -1:255 32 0] 
r 1.603633428 _1_ MAC  --- 5 message 32 [0 ffffffff 3 800] ------- [3:255 -1:255 32 0] 
r 1.603658255 _4_ RTR  --- 5 message 32 [0 ffffffff 3 800] ------- [3:255 -1:255 32 0] 
r 1.603658274 _2_ RTR  --- 5 message 32 [0 ffffffff 3 800] ------- [3:255 -1:255 32 0] 
r 1.603658318 _0_ RTR  --- 5 message 32 [0 ffffffff 3 800] ------- [3:255 -1:255 32 0] 
r 1.603658428 _1_ RTR  --- 5 message 32 [0 ffffffff 3 800] ------- [3:255 -1:255 32 0] 
s 1.603658428 _1_ RTR  --- 4 tcp 80 [0 0 0 0] ------- [1:0 3:0 32 3] [0 0] 0 0
s 1.604293428 _1_ MAC  --- 0 ARP 86 [0 ffffffff 1 806] ------- [REQUEST 1/1 0/3]
r 1.604981859 _2_ MAC  --- 0 ARP 28 [0 ffffffff 1 806] ------- [REQUEST 1/1 0/3]
r 1.604981968 _0_ MAC  --- 0 ARP 28 [0 ffffffff 1 806] ------- [REQUEST 1/1 0/3]
r 1.604982093 _3_ MAC  --- 0 ARP 28 [0 ffffffff 1 806] ------- [REQUEST 1/1 0/3]
s 1.605577093 _3_ MAC  --- 0 RTS 44 [52e 1 3 0] 
r 1.605929757 _1_ MAC  --- 0 RTS 44 [52e 1 3 0] 
s 1.605939757 _1_ MAC  --- 0 CTS 38 [3f4 3 0 0] 
r 1.606244422 _3_ MAC  --- 0 CTS 38 [3f4 3 0 0] 
s 1.606254422 _3_ MAC  --- 0 ARP 86 [13a 1 3 806] ------- [REPLY 3/3 1/1]
r 1.606943086 _1_ MAC  --- 0 ARP 28 [13a 1 3 806] ------- [REPLY 3/3 1/1]
s 1.606953086 _1_ MAC  --- 0 ACK 38 [0 3 0 0] 
r 1.607257751 _3_ MAC  --- 0 ACK 38 [0 3 0 0] 
s 1.607667086 _1_ MAC  --- 0 RTS 44 [6ce 3 1 0] 
r 1.608019751 _3_ MAC  --- 0 RTS 44 [6ce 3 1 0] 
s 1.608029751 _3_ MAC  --- 0 CTS 38 [594 1 0 0] 
r 1.608334416 _1_ MAC  --- 0 CTS 38 [594 1 0 0] 
s 1.608344416 _1_ MAC  --- 4 tcp 138 [13a 3 1 800] ------- [1:0 3:0 32 3] [0 0] 0 0
r 1.609449080 _3_ MAC  --- 4 tcp 80 [13a 3 1 800] ------- [1:0 3:0 32 3] [0 0] 1 0
s 1.609459080 _3_ MAC  --- 0 ACK 38 [0 1 0 0] 
r 1.609474080 _3_ AGT  --- 4 tcp 80 [13a 3 1 800] ------- [1:0 3:0 32 3] [0 0] 1 0
s 1.609474080 _3_ AGT  --- 6 ack 40 [0 0 0 0] ------- [3:0 1:0 32 0] [0 0] 0 0
r 1.609474080 _3_ RTR  --- 6 ack 40 [0 0 0 0] ------- [3:0 1:0 32 0] [0 0] 0 0
s 1.609474080 _3_ RTR  --- 6 ack 60 [0 0 0 0] ------- [3:0 1:0 32 1] [0 0] 0 0
r 1.609763745 _1_ MAC  --- 0 ACK 38 [0 1 0 0] 
s 1.610113080 _3_ MAC  --- 0 RTS 44 [62e 1 3 0] 
r 1.610465745 _1_ MAC  --- 0 RTS 44 [62e 1 3 0] 
s 1.610475745 _1_ MAC  --- 0 CTS 38 [4f4 3 0 0] 
r 1.610780409 _3_ MAC  --- 0 CTS 38 [4f4 3 0 0] 
s 1.610790409 _3_ MAC  --- 6 ack 118 [13a 1 3 800] ------- [3:0 1:0 32 1] [0 0] 0 0
r 1.611735074 _1_ MAC  --- 6 ack 60 [13a 1 3 800] ------- [3:0 1:0 32 1] [0 0] 1 0
s 1.611745074 _1_ MAC  --- 0 ACK 38 [0 3 0 0] 
r 1.611760074 _1_ AGT  --- 6 ack 60 [13a 1 3 800] ------- [3:0 1:0 32 1] [0 0] 1 0
s 1.611760074 _1_ AGT  --- 7 tcp 3040 [0 0 0 0] ------- [1:0 3:0 32 0] [1 0] 0 0
r 1.611760074 _1_ RTR  --- 7 tcp 3040 [0 0 0 0] ------- [1:0 3:0 32 0] [1 0] 0 0
s 1.611760074 _1_ RTR  --- 7 tcp 3060 [0 0 0 0] ------- [1:0 3:0 32 3] [1 0] 0 0
s 1.611760074 _1_ AGT  --- 8 tcp 3040 [0 0 0 0] ------- [1:0 3:0 32 0] [2 0] 0 0
r 1.611760074 _1_ RTR  --- 8 tcp 3040 [0 0 0 0] ------- [1:0 3:0 32 0] [2 0] 0 0
s 1.611760074 _1_ RTR  --- 8 tcp 3060 [0 0 0 0] ------- [1:0 3:0 32 3] [2 0] 0 0
r 1.612049738 _3_ MAC  --- 0 ACK 38 [0 3 0 0] 
s 1.612159074 _1_ MAC  --- 0 RTS 44 [63ee 3 1 0] 
r 1.612511738 _3_ MAC  --- 0 RTS 44 [63ee 3 1 0] 
s 1.612521738 _3_ MAC  --- 0 CTS 38 [62b4 1 0 0] 
r 1.612826403 _1_ MAC  --- 0 CTS 38 [62b4 1 0 0] 
s 1.612836403 _1_ MAC  --- 7 tcp 3118 [13a 3 1 800] ------- [1:0 3:0 32 3] [1 0] 0 0
r 1.637781068 _3_ MAC  --- 7 tcp 3060 [13a 3 1 800] ------- [1:0 3:0 32 3] [1 0] 1 0
s 1.637791068 _3_ MAC  --- 0 ACK 38 [0 1 0 0] 
r 1.637806068 _3_ AGT  --- 7 tcp 3060 [13a 3 1 800] ------- [1:0 3:0 32 3] [1 0] 1 0
s 1.637806068 _3_ AGT  --- 9 ack 40 [0 0 0 0] ------- [3:0 1:0 32 0] [1 0] 0 0
r 1.637806068 _3_ RTR  --- 9 ack 40 [0 0 0 0] ------- [3:0 1:0 32 0] [1 0] 0 0
s 1.637806068 _3_ RTR  --- 9 ack 60 [0 0 0 0] ------- [3:0 1:0 32 1] [1 0] 0 0
r 1.638095732 _1_ MAC  --- 0 ACK 38 [0 1 0 0] 
s 1.638225068 _3_ MAC  --- 0 RTS 44 [62e 1 3 0] 
s 1.638225732 _1_ MAC  --- 0 RTS 44 [63ee 3 1 0] 
s 1.638991732 _1_ MAC  --- 0 RTS 44 [63ee 3 1 0] 
r 1.639344397 _3_ MAC  --- 0 RTS 44 [63ee 3 1 0] 
s 1.639354397 _3_ MAC  --- 0 CTS 38 [62b4 1 0 0] 
r 1.639659062 _1_ MAC  --- 0 CTS 38 [62b4 1 0 0] 
s 1.639669062 _1_ MAC  --- 8 tcp 3118 [13a 3 1 800] ------- [1:0 3:0 32 3] [2 0] 0 0
r 1.664613726 _3_ MAC  --- 8 tcp 3060 [13a 3 1 800] ------- [1:0 3:0 32 3] [2 0] 1 0
s 1.664623726 _3_ MAC  --- 0 ACK 38 [0 1 0 0] 
r 1.664638726 _3_ AGT  --- 8 tcp 3060 [13a 3 1 800] ------- [1:0 3:0 32 3] [2 0] 1 0
s 1.664638726 _3_ AGT  --- 10 ack 40 [0 0 0 0] ------- [3:0 1:0 32 0] [2 0] 0 0
r 1.664638726 _3_ RTR  --- 10 ack 40 [0 0 0 0] ------- [3:0 1:0 32 0] [2 0] 0 0
s 1.664638726 _3_ RTR  --- 10 ack 60 [0 0 0 0] ------- [3:0 1:0 32 1] [2 0] 0 0
r 1.664928391 _1_ MAC  --- 0 ACK 38 [0 1 0 0] 
s 1.666097726 _3_ MAC  --- 0 RTS 44 [62e 1 3 0] 
r 1.666450391 _1_ MAC  --- 0 RTS 44 [62e 1 3 0] 
s 1.666460391 _1_ MAC  --- 0 CTS 38 [4f4 3 0 0] 
r 1.666765056 _3_ MAC  --- 0 CTS 38 [4f4 3 0 0] 
s 1.666775056 _3_ MAC  --- 9 ack 118 [13a 1 3 800] ------- [3:0 1:0 32 1] [1 0] 0 0
r 1.667719721 _1_ MAC  --- 9 ack 60 [13a 1 3 800] ------- [3:0 1:0 32 1] [1 0] 1 0
s 1.667729721 _1_ MAC  --- 0 ACK 38 [0 3 0 0] 
r 1.667744721 _1_ AGT  --- 9 ack 60 [13a 1 3 800] ------- [3:0 1:0 32 1] [1 0] 1 0
s 1.667744721 _1_ AGT  --- 11 tcp 3040 [0 0 0 0] ------- [1:0 3:0 32 0] [3 0] 0 0
r 1.667744721 _1_ RTR  --- 11 tcp 3040 [0 0 0 0] ------- [1:0 3:0 32 0] [3 0] 0 0
s 1.667744721 _1_ RTR  --- 11 tcp 3060 [0 0 0 0] ------- [1:0 3:0 32 3] [3 0] 0 0
s 1.667744721 _1_ AGT  --- 12 tcp 3040 [0 0 0 0] ------- [1:0 3:0 32 0] [4 0] 0 0
r 1.667744721 _1_ RTR  --- 12 tcp 3040 [0 0 0 0] ------- [1:0 3:0 32 0] [4 0] 0 0
s 1.667744721 _1_ RTR  --- 12 tcp 3060 [0 0 0 0] ------- [1:0 3:0 32 3] [4 0] 0 0
r 1.668034386 _3_ MAC  --- 0 ACK 38 [0 3 0 0] 
s 1.668304386 _3_ MAC  --- 0 RTS 44 [62e 1 3 0] 
r 1.668657051 _1_ MAC  --- 0 RTS 44 [62e 1 3 0] 
s 1.668667051 _1_ MAC  --- 0 CTS 38 [4f4 3 0 0] 
r 1.668971715 _3_ MAC  --- 0 CTS 38 [4f4 3 0 0] 
s 1.668981715 _3_ MAC  --- 10 ack 118 [13a 1 3 800] ------- [3:0 1:0 32 1] [2 0] 0 0
r 1.669926380 _1_ MAC  --- 10 ack 60 [13a 1 3 800] ------- [3:0 1:0 32 1] [2 0] 1 0
s 1.669936380 _1_ MAC  --- 0 ACK 38 [0 3 0 0] 
r 1.669951380 _1_ AGT  --- 10 ack 60 [13a 1 3 800] ------- [3:0 1:0 32 1] [2 0] 1 0
s 1.669951380 _1_ AGT  --- 13 tcp 3040 [0 0 0 0] ------- [1:0 3:0 32 0] [5 0] 0 0
r 1.669951380 _1_ RTR  --- 13 tcp 3040 [0 0 0 0] ------- [1:0 3:0 32 0] [5 0] 0 0
s 1.669951380 _1_ RTR  --- 13 tcp 3060 [0 0 0 0] ------- [1:0 3:0 32 3] [5 0] 0 0
s 1.669951380 _1_ AGT  --- 14 tcp 3040 [0 0 0 0] ------- [1:0 3:0 32 0] [6 0] 0 0
r 1.669951380 _1_ RTR  --- 14 tcp 3040 [0 0 0 0] ------- [1:0 3:0 32 0] [6 0] 0 0
s 1.669951380 _1_ RTR  --- 14 tcp 3060 [0 0 0 0] ------- [1:0 3:0 32 3] [6 0] 0 0
r 1.670241045 _3_ MAC  --- 0 ACK 38 [0 3 0 0] 
s 1.670590380 _1_ MAC  --- 0 RTS 44 [63ee 3 1 0] 
r 1.670943045 _3_ MAC  --- 0 RTS 44 [63ee 3 1 0] 
s 1.670953045 _3_ MAC  --- 0 CTS 38 [62b4 1 0 0] 
r 1.671257710 _1_ MAC  --- 0 CTS 38 [62b4 1 0 0] 
s 1.671267710 _1_ MAC  --- 11 tcp 3118 [13a 3 1 800] ------- [1:0 3:0 32 3] [3 0] 0 0
r 1.696212375 _3_ MAC  --- 11 tcp 3060 [13a 3 1 800] ------- [1:0 3:0 32 3] [3 0] 1 0
s 1.696222375 _3_ MAC  --- 0 ACK 38 [0 1 0 0] 
r 1.696237375 _3_ AGT  --- 11 tcp 3060 [13a 3 1 800] ------- [1:0 3:0 32 3] [3 0] 1 0
s 1.696237375 _3_ AGT  --- 15 ack 40 [0 0 0 0] ------- [3:0 1:0 32 0] [3 0] 0 0
r 1.696237375 _3_ RTR  --- 15 ack 40 [0 0 0 0] ------- [3:0 1:0 32 0] [3 0] 0 0
s 1.696237375 _3_ RTR  --- 15 ack 60 [0 0 0 0] ------- [3:0 1:0 32 1] [3 0] 0 0
r 1.696527040 _1_ MAC  --- 0 ACK 38 [0 1 0 0] 
s 1.696637040 _1_ MAC  --- 0 RTS 44 [63ee 3 1 0] 
r 1.696989705 _3_ MAC  --- 0 RTS 44 [63ee 3 1 0] 
s 1.696999705 _3_ MAC  --- 0 CTS 38 [62b4 1 0 0] 
r 1.697304370 _1_ MAC  --- 0 CTS 38 [62b4 1 0 0] 
s 1.697314370 _1_ MAC  --- 12 tcp 3118 [13a 3 1 800] ------- [1:0 3:0 32 3] [4 0] 0 0
r 1.722259035 _3_ MAC  --- 12 tcp 3060 [13a 3 1 800] ------- [1:0 3:0 32 3] [4 0] 1 0
s 1.722269035 _3_ MAC  --- 0 ACK 38 [0 1 0 0] 
r 1.722284035 _3_ AGT  --- 12 tcp 3060 [13a 3 1 800] ------- [1:0 3:0 32 3] [4 0] 1 0
s 1.722284035 _3_ AGT  --- 16 ack 40 [0 0 0 0] ------- [3:0 1:0 32 0] [4 0] 0 0
r 1.722284035 _3_ RTR  --- 16 ack 40 [0 0 0 0] ------- [3:0 1:0 32 0] [4 0] 0 0
s 1.722284035 _3_ RTR  --- 16 ack 60 [0 0 0 0] ------- [3:0 1:0 32 1] [4 0] 0 0
r 1.722573700 _1_ MAC  --- 0 ACK 38 [0 1 0 0] 
s 1.722743700 _1_ MAC  --- 0 RTS 44 [63ee 3 1 0] 
r 1.723096365 _3_ MAC  --- 0 RTS 44 [63ee 3 1 0] 
s 1.723106365 _3_ MAC  --- 0 CTS 38 [62b4 1 0 0] 
r 1.723411030 _1_ MAC  --- 0 CTS 38 [62b4 1 0 0] 
s 1.723421030 _1_ MAC  --- 13 tcp 3118 [13a 3 1 800] ------- [1:0 3:0 32 3] [5 0] 0 0
r 1.748365695 _3_ MAC  --- 13 tcp 3060 [13a 3 1 800] ------- [1:0 3:0 32 3] [5 0] 1 0
s 1.748375695 _3_ MAC  --- 0 ACK 38 [0 1 0 0] 
r 1.748390695 _3_ AGT  --- 13 tcp 3060 [13a 3 1 800] ------- [1:0 3:0 32 3] [5 0] 1 0
s 1.748390695 _3_ AGT  --- 17 ack 40 [0 0 0 0] ------- [3:0 1:0 32 0] [5 0] 0 0
r 1.748390695 _3_ RTR  --- 17 ack 40 [0 0 0 0] ------- [3:0 1:0 32 0] [5 0] 0 0
s 1.748390695 _3_ RTR  --- 17 ack 60 [0 0 0 0] ------- [3:0 1:0 32 1] [5 0] 0 0
r 1.748680360 _1_ MAC  --- 0 ACK 38 [0 1 0 0] 
s 1.749070360 _1_ MAC  --- 0 RTS 44 [63ee 3 1 0] 
r 1.749423026 _3_ MAC  --- 0 RTS 44 [63ee 3 1 0] 
s 1.749433026 _3_ MAC  --- 0 CTS 38 [62b4 1 0 0] 
r 1.749737691 _1_ MAC  --- 0 CTS 38 [62b4 1 0 0] 
s 1.749747691 _1_ MAC  --- 14 tcp 3118 [13a 3 1 800] ------- [1:0 3:0 32 3] [6 0] 0 0
r 1.774692356 _3_ MAC  --- 14 tcp 3060 [13a 3 1 800] ------- [1:0 3:0 32 3] [6 0] 1 0
s 1.774702356 _3_ MAC  --- 0 ACK 38 [0 1 0 0] 
r 1.774717356 _3_ AGT  --- 14 tcp 3060 [13a 3 1 800] ------- [1:0 3:0 32 3] [6 0] 1 0
s 1.774717356 _3_ AGT  --- 18 ack 40 [0 0 0 0] ------- [3:0 1:0 32 0] [6 0] 0 0
r 1.774717356 _3_ RTR  --- 18 ack 40 [0 0 0 0] ------- [3:0 1:0 32 0] [6 0] 0 0
s 1.774717356 _3_ RTR  --- 18 ack 60 [0 0 0 0] ------- [3:0 1:0 32 1] [6 0] 0 0
r 1.775007022 _1_ MAC  --- 0 ACK 38 [0 1 0 0] 
s 1.775116356 _3_ MAC  --- 0 RTS 44 [62e 1 3 0] 
r 1.775469022 _1_ MAC  --- 0 RTS 44 [62e 1 3 0] 
s 1.775479022 _1_ MAC  --- 0 CTS 38 [4f4 3 0 0] 
r 1.775783687 _3_ MAC  --- 0 CTS 38 [4f4 3 0 0] 
s 1.775793687 _3_ MAC  --- 15 ack 118 [13a 1 3 800] ------- [3:0 1:0 32 1] [3 0] 0 0
r 1.776738352 _1_ MAC  --- 15 ack 60 [13a 1 3 800] ------- [3:0 1:0 32 1] [3 0] 1 0
s 1.776748352 _1_ MAC  --- 0 ACK 38 [0 3 0 0] 
r 1.776763352 _1_ AGT  --- 15 ack 60 [13a 1 3 800] ------- [3:0 1:0 32 1] [3 0] 1 0
s 1.776763352 _1_ AGT  --- 19 tcp 3040 [0 0 0 0] ------- [1:0 3:0 32 0] [7 0] 0 0
r 1.776763352 _1_ RTR  --- 19 tcp 3040 [0 0 0 0] ------- [1:0 3:0 32 0] [7 0] 0 0
s 1.776763352 _1_ RTR  --- 19 tcp 3060 [0 0 0 0] ------- [1:0 3:0 32 3] [7 0] 0 0
s 1.776763352 _1_ AGT  --- 20 tcp 3040 [0 0 0 0] ------- [1:0 3:0 32 0] [8 0] 0 0
r 1.776763352 _1_ RTR  --- 20 tcp 3040 [0 0 0 0] ------- [1:0 3:0 32 0] [8 0] 0 0
s 1.776763352 _1_ RTR  --- 20 tcp 3060 [0 0 0 0] ------- [1:0 3:0 32 3] [8 0] 0 0
r 1.777053018 _3_ MAC  --- 0 ACK 38 [0 3 0 0] 
s 1.777383018 _3_ MAC  --- 0 RTS 44 [62e 1 3 0] 
r 1.777735683 _1_ MAC  --- 0 RTS 44 [62e 1 3 0] 
s 1.777745683 _1_ MAC  --- 0 CTS 38 [4f4 3 0 0] 
r 1.778050348 _3_ MAC  --- 0 CTS 38 [4f4 3 0 0] 
s 1.778060348 _3_ MAC  --- 16 ack 118 [13a 1 3 800] ------- [3:0 1:0 32 1] [4 0] 0 0
r 1.779005014 _1_ MAC  --- 16 ack 60 [13a 1 3 800] ------- [3:0 1:0 32 1] [4 0] 1 0
s 1.779015014 _1_ MAC  --- 0 ACK 38 [0 3 0 0] 
r 1.779030014 _1_ AGT  --- 16 ack 60 [13a 1 3 800] ------- [3:0 1:0 32 1] [4 0] 1 0
s 1.779030014 _1_ AGT  --- 21 tcp 3040 [0 0 0 0] ------- [1:0 3:0 32 0] [9 0] 0 0
r 1.779030014 _1_ RTR  --- 21 tcp 3040 [0 0 0 0] ------- [1:0 3:0 32 0] [9 0] 0 0
s 1.779030014 _1_ RTR  --- 21 tcp 3060 [0 0 0 0] ------- [1:0 3:0 32 3] [9 0] 0 0
s 1.779030014 _1_ AGT  --- 22 tcp 3040 [0 0 0 0] ------- [1:0 3:0 32 0] [10 0] 0 0
r 1.779030014 _1_ RTR  --- 22 tcp 3040 [0 0 0 0] ------- [1:0 3:0 32 0] [10 0] 0 0
s 1.779030014 _1_ RTR  --- 22 tcp 3060 [0 0 0 0] ------- [1:0 3:0 32 3] [10 0] 0 0
r 1.779319679 _3_ MAC  --- 0 ACK 38 [0 3 0 0] 
s 1.779529014 _1_ MAC  --- 0 RTS 44 [63ee 3 1 0] 
r 1.779881679 _3_ MAC  --- 0 RTS 44 [63ee 3 1 0] 
s 1.779891679 _3_ MAC  --- 0 CTS 38 [62b4 1 0 0] 
r 1.780196345 _1_ MAC  --- 0 CTS 38 [62b4 1 0 0] 
s 1.780206345 _1_ MAC  --- 19 tcp 3118 [13a 3 1 800] ------- [1:0 3:0 32 3] [7 0] 0 0
r 1.805151010 _3_ MAC  --- 19 tcp 3060 [13a 3 1 800] ------- [1:0 3:0 32 3] [7 0] 1 0
s 1.805161010 _3_ MAC  --- 0 ACK 38 [0 1 0 0] 
r 1.805176010 _3_ AGT  --- 19 tcp 3060 [13a 3 1 800] ------- [1:0 3:0 32 3] [7 0] 1 0
s 1.805176010 _3_ AGT  --- 23 ack 40 [0 0 0 0] ------- [3:0 1:0 32 0] [7 0] 0 0
r 1.805176010 _3_ RTR  --- 23 ack 40 [0 0 0 0] ------- [3:0 1:0 32 0] [7 0] 0 0
s 1.805176010 _3_ RTR  --- 23 ack 60 [0 0 0 0] ------- [3:0 1:0 32 1] [7 0] 0 0
r 1.805465675 _1_ MAC  --- 0 ACK 38 [0 1 0 0] 
s 1.805535010 _3_ MAC  --- 0 RTS 44 [62e 1 3 0] 
r 1.805887675 _1_ MAC  --- 0 RTS 44 [62e 1 3 0] 
s 1.805897675 _1_ MAC  --- 0 CTS 38 [4f4 3 0 0] 
r 1.806202341 _3_ MAC  --- 0 CTS 38 [4f4 3 0 0] 
s 1.806212341 _3_ MAC  --- 17 ack 118 [13a 1 3 800] ------- [3:0 1:0 32 1] [5 0] 0 0
r 1.807157007 _1_ MAC  --- 17 ack 60 [13a 1 3 800] ------- [3:0 1:0 32 1] [5 0] 1 0
s 1.807167007 _1_ MAC  --- 0 ACK 38 [0 3 0 0] 
r 1.807182007 _1_ AGT  --- 17 ack 60 [13a 1 3 800] ------- [3:0 1:0 32 1] [5 0] 1 0
s 1.807182007 _1_ AGT  --- 24 tcp 3040 [0 0 0 0] ------- [1:0 3:0 32 0] [11 0] 0 0
r 1.807182007 _1_ RTR  --- 24 tcp 3040 [0 0 0 0] ------- [1:0 3:0 32 0] [11 0] 0 0
s 1.807182007 _1_ RTR  --- 24 tcp 3060 [0 0 0 0] ------- [1:0 3:0 32 3] [11 0] 0 0
s 1.807182007 _1_ AGT  --- 25 tcp 3040 [0 0 0 0] ------- [1:0 3:0 32 0] [12 0] 0 0
r 1.807182007 _1_ RTR  --- 25 tcp 3040 [0 0 0 0] ------- [1:0 3:0 32 0] [12 0] 0 0
s 1.807182007 _1_ RTR  --- 25 tcp 3060 [0 0 0 0] ------- [1:0 3:0 32 3] [12 0] 0 0
r 1.807471672 _3_ MAC  --- 0 ACK 38 [0 3 0 0] 
s 1.807781007 _1_ MAC  --- 0 RTS 44 [63ee 3 1 0] 
r 1.808133672 _3_ MAC  --- 0 RTS 44 [63ee 3 1 0] 
s 1.808143672 _3_ MAC  --- 0 CTS 38 [62b4 1 0 0] 
r 1.808448338 _1_ MAC  --- 0 CTS 38 [62b4 1 0 0] 
s 1.808458338 _1_ MAC  --- 20 tcp 3118 [13a 3 1 800] ------- [1:0 3:0 32 3] [8 0] 0 0
r 1.833403003 _3_ MAC  --- 20 tcp 3060 [13a 3 1 800] ------- [1:0 3:0 32 3] [8 0] 1 0
s 1.833413003 _3_ MAC  --- 0 ACK 38 [0 1 0 0] 
r 1.833428003 _3_ AGT  --- 20 tcp 3060 [13a 3 1 800] ------- [1:0 3:0 32 3] [8 0] 1 0
s 1.833428003 _3_ AGT  --- 26 ack 40 [0 0 0 0] ------- [3:0 1:0 32 0] [8 0] 0 0
r 1.833428003 _3_ RTR  --- 26 ack 40 [0 0 0 0] ------- [3:0 1:0 32 0] [8 0] 0 0
s 1.833428003 _3_ RTR  --- 26 ack 60 [0 0 0 0] ------- [3:0 1:0 32 1] [8 0] 0 0
r 1.833717669 _1_ MAC  --- 0 ACK 38 [0 1 0 0] 
s 1.833767669 _1_ MAC  --- 0 RTS 44 [63ee 3 1 0] 
r 1.834120334 _3_ MAC  --- 0 RTS 44 [63ee 3 1 0] 
s 1.834130334 _3_ MAC  --- 0 CTS 38 [62b4 1 0 0] 
r 1.834435000 _1_ MAC  --- 0 CTS 38 [62b4 1 0 0] 
s 1.834445000 _1_ MAC  --- 21 tcp 3118 [13a 3 1 800] ------- [1:0 3:0 32 3] [9 0] 0 0
r 1.859389666 _3_ MAC  --- 21 tcp 3060 [13a 3 1 800] ------- [1:0 3:0 32 3] [9 0] 1 0
s 1.859399666 _3_ MAC  --- 0 ACK 38 [0 1 0 0] 
r 1.859414666 _3_ AGT  --- 21 tcp 3060 [13a 3 1 800] ------- [1:0 3:0 32 3] [9 0] 1 0
s 1.859414666 _3_ AGT  --- 27 ack 40 [0 0 0 0] ------- [3:0 1:0 32 0] [9 0] 0 0
r 1.859414666 _3_ RTR  --- 27 ack 40 [0 0 0 0] ------- [3:0 1:0 32 0] [9 0] 0 0
s 1.859414666 _3_ RTR  --- 27 ack 60 [0 0 0 0] ------- [3:0 1:0 32 1] [9 0] 0 0
r 1.859704332 _1_ MAC  --- 0 ACK 38 [0 1 0 0] 
s 1.859973666 _3_ MAC  --- 0 RTS 44 [62e 1 3 0] 
s 1.859974332 _1_ MAC  --- 0 RTS 44 [63ee 3 1 0] 
s 1.861080332 _1_ MAC  --- 0 RTS 44 [63ee 3 1 0] 
r 1.861432997 _3_ MAC  --- 0 RTS 44 [63ee 3 1 0] 
s 1.861442997 _3_ MAC  --- 0 CTS 38 [62b4 1 0 0] 
r 1.861747663 _1_ MAC  --- 0 CTS 38 [62b4 1 0 0] 
s 1.861757663 _1_ MAC  --- 22 tcp 3118 [13a 3 1 800] ------- [1:0 3:0 32 3] [10 0] 0 0
r 1.886702329 _3_ MAC  --- 22 tcp 3060 [13a 3 1 800] ------- [1:0 3:0 32 3] [10 0] 1 0
s 1.886712329 _3_ MAC  --- 0 ACK 38 [0 1 0 0] 
r 1.886727329 _3_ AGT  --- 22 tcp 3060 [13a 3 1 800] ------- [1:0 3:0 32 3] [10 0] 1 0
s 1.886727329 _3_ AGT  --- 28 ack 40 [0 0 0 0] ------- [3:0 1:0 32 0] [10 0] 0 0
r 1.886727329 _3_ RTR  --- 28 ack 40 [0 0 0 0] ------- [3:0 1:0 32 0] [10 0] 0 0
s 1.886727329 _3_ RTR  --- 28 ack 60 [0 0 0 0] ------- [3:0 1:0 32 1] [10 0] 0 0
r 1.887016995 _1_ MAC  --- 0 ACK 38 [0 1 0 0] 
s 1.887286995 _1_ MAC  --- 0 RTS 44 [63ee 3 1 0] 
r 1.887639661 _3_ MAC  --- 0 RTS 44 [63ee 3 1 0] 
s 1.887649661 _3_ MAC  --- 0 CTS 38 [62b4 1 0 0] 
r 1.887954327 _1_ MAC  --- 0 CTS 38 [62b4 1 0 0] 
s 1.887964327 _1_ MAC  --- 24 tcp 3118 [13a 3 1 800] ------- [1:0 3:0 32 3] [11 0] 0 0
r 1.912908993 _3_ MAC  --- 24 tcp 3060 [13a 3 1 800] ------- [1:0 3:0 32 3] [11 0] 1 0
s 1.912918993 _3_ MAC  --- 0 ACK 38 [0 1 0 0] 
r 1.912933993 _3_ AGT  --- 24 tcp 3060 [13a 3 1 800] ------- [1:0 3:0 32 3] [11 0] 1 0
s 1.912933993 _3_ AGT  --- 29 ack 40 [0 0 0 0] ------- [3:0 1:0 32 0] [11 0] 0 0
r 1.912933993 _3_ RTR  --- 29 ack 40 [0 0 0 0] ------- [3:0 1:0 32 0] [11 0] 0 0
s 1.912933993 _3_ RTR  --- 29 ack 60 [0 0 0 0] ------- [3:0 1:0 32 1] [11 0] 0 0
r 1.913223659 _1_ MAC  --- 0 ACK 38 [0 1 0 0] 
s 1.913353659 _1_ MAC  --- 0 RTS 44 [63ee 3 1 0] 
r 1.913706325 _3_ MAC  --- 0 RTS 44 [63ee 3 1 0] 
s 1.913716325 _3_ MAC  --- 0 CTS 38 [62b4 1 0 0] 
r 1.914020991 _1_ MAC  --- 0 CTS 38 [62b4 1 0 0] 
s 1.914030991 _1_ MAC  --- 25 tcp 3118 [13a 3 1 800] ------- [1:0 3:0 32 3] [12 0] 0 0
r 1.938975657 _3_ MAC  --- 25 tcp 3060 [13a 3 1 800] ------- [1:0 3:0 32 3] [12 0] 1 0
s 1.938985657 _3_ MAC  --- 0 ACK 38 [0 1 0 0] 
r 1.939000657 _3_ AGT  --- 25 tcp 3060 [13a 3 1 800] ------- [1:0 3:0 32 3] [12 0] 1 0
s 1.939000657 _3_ AGT  --- 30 ack 40 [0 0 0 0] ------- [3:0 1:0 32 0] [12 0] 0 0
r 1.939000657 _3_ RTR  --- 30 ack 40 [0 0 0 0] ------- [3:0 1:0 32 0] [12 0] 0 0
s 1.939000657 _3_ RTR  --- 30 ack 60 [0 0 0 0] ------- [3:0 1:0 32 1] [12 0] 0 0
r 1.939290323 _1_ MAC  --- 0 ACK 38 [0 1 0 0] 
s 1.939579657 _3_ MAC  --- 0 RTS 44 [62e 1 3 0] 
r 1.939932323 _1_ MAC  --- 0 RTS 44 [62e 1 3 0] 
s 1.939942323 _1_ MAC  --- 0 CTS 38 [4f4 3 0 0] 
r 1.940246989 _3_ MAC  --- 0 CTS 38 [4f4 3 0 0] 
s 1.940256989 _3_ MAC  --- 18 ack 118 [13a 1 3 800] ------- [3:0 1:0 32 1] [6 0] 0 0
r 1.941201656 _1_ MAC  --- 18 ack 60 [13a 1 3 800] ------- [3:0 1:0 32 1] [6 0] 1 0
s 1.941211656 _1_ MAC  --- 0 ACK 38 [0 3 0 0] 
r 1.941226656 _1_ AGT  --- 18 ack 60 [13a 1 3 800] ------- [3:0 1:0 32 1] [6 0] 1 0
s 1.941226656 _1_ AGT  --- 31 tcp 3040 [0 0 0 0] ------- [1:0 3:0 32 0] [13 0] 0 0
r 1.941226656 _1_ RTR  --- 31 tcp 3040 [0 0 0 0] ------- [1:0 3:0 32 0] [13 0] 0 0
s 1.941226656 _1_ RTR  --- 31 tcp 3060 [0 0 0 0] ------- [1:0 3:0 32 3] [13 0] 0 0
s 1.941226656 _1_ AGT  --- 32 tcp 3040 [0 0 0 0] ------- [1:0 3:0 32 0] [14 0] 0 0
r 1.941226656 _1_ RTR  --- 32 tcp 3040 [0 0 0 0] ------- [1:0 3:0 32 0] [14 0] 0 0
s 1.941226656 _1_ RTR  --- 32 tcp 3060 [0 0 0 0] ------- [1:0 3:0 32 3] [14 0] 0 0
r 1.941516322 _3_ MAC  --- 0 ACK 38 [0 3 0 0] 
s 1.941566322 _3_ MAC  --- 0 RTS 44 [62e 1 3 0] 
r 1.941918988 _1_ MAC  --- 0 RTS 44 [62e 1 3 0] 
s 1.941928988 _1_ MAC  --- 0 CTS 38 [4f4 3 0 0] 
r 1.942233654 _3_ MAC  --- 0 CTS 38 [4f4 3 0 0] 
s 1.942243654 _3_ MAC  --- 23 ack 118 [13a 1 3 800] ------- [3:0 1:0 32 1] [7 0] 0 0
r 1.943188321 _1_ MAC  --- 23 ack 60 [13a 1 3 800] ------- [3:0 1:0 32 1] [7 0] 1 0
s 1.943198321 _1_ MAC  --- 0 ACK 38 [0 3 0 0] 
r 1.943213321 _1_ AGT  --- 23 ack 60 [13a 1 3 800] ------- [3:0 1:0 32 1] [7 0] 1 0
s 1.943213321 _1_ AGT  --- 33 tcp 3040 [0 0 0 0] ------- [1:0 3:0 32 0] [15 0] 0 0
r 1.943213321 _1_ RTR  --- 33 tcp 3040 [0 0 0 0] ------- [1:0 3:0 32 0] [15 0] 0 0
s 1.943213321 _1_ RTR  --- 33 tcp 3060 [0 0 0 0] ------- [1:0 3:0 32 3] [15 0] 0 0
s 1.943213321 _1_ AGT  --- 34 tcp 3040 [0 0 0 0] ------- [1:0 3:0 32 0] [16 0] 0 0
r 1.943213321 _1_ RTR  --- 34 tcp 3040 [0 0 0 0] ------- [1:0 3:0 32 0] [16 0] 0 0
s 1.943213321 _1_ RTR  --- 34 tcp 3060 [0 0 0 0] ------- [1:0 3:0 32 3] [16 0] 0 0
r 1.943502987 _3_ MAC  --- 0 ACK 38 [0 3 0 0] 
s 1.943612321 _1_ MAC  --- 0 RTS 44 [63ee 3 1 0] 
r 1.943964987 _3_ MAC  --- 0 RTS 44 [63ee 3 1 0] 
s 1.943974987 _3_ MAC  --- 0 CTS 38 [62b4 1 0 0] 
r 1.944279653 _1_ MAC  --- 0 CTS 38 [62b4 1 0 0] 
s 1.944289653 _1_ MAC  --- 31 tcp 3118 [13a 3 1 800] ------- [1:0 3:0 32 3] [13 0] 0 0
r 1.969234319 _3_ MAC  --- 31 tcp 3060 [13a 3 1 800] ------- [1:0 3:0 32 3] [13 0] 1 0
s 1.969244319 _3_ MAC  --- 0 ACK 38 [0 1 0 0] 
r 1.969259319 _3_ AGT  --- 31 tcp 3060 [13a 3 1 800] ------- [1:0 3:0 32 3] [13 0] 1 0
s 1.969259319 _3_ AGT  --- 35 ack 40 [0 0 0 0] ------- [3:0 1:0 32 0] [13 0] 0 0
r 1.969259319 _3_ RTR  --- 35 ack 40 [0 0 0 0] ------- [3:0 1:0 32 0] [13 0] 0 0
s 1.969259319 _3_ RTR  --- 35 ack 60 [0 0 0 0] ------- [3:0 1:0 32 1] [13 0] 0 0
r 1.969548986 _1_ MAC  --- 0 ACK 38 [0 1 0 0] 
s 1.969778319 _3_ MAC  --- 0 RTS 44 [62e 1 3 0] 
r 1.970130986 _1_ MAC  --- 0 RTS 44 [62e 1 3 0] 
s 1.970140986 _1_ MAC  --- 0 CTS 38 [4f4 3 0 0] 
r 1.970445652 _3_ MAC  --- 0 CTS 38 [4f4 3 0 0] 
s 1.970455652 _3_ MAC  --- 26 ack 118 [13a 1 3 800] ------- [3:0 1:0 32 1] [8 0] 0 0
r 1.971400318 _1_ MAC  --- 26 ack 60 [13a 1 3 800] ------- [3:0 1:0 32 1] [8 0] 1 0
s 1.971410318 _1_ MAC  --- 0 ACK 38 [0 3 0 0] 
r 1.971425318 _1_ AGT  --- 26 ack 60 [13a 1 3 800] ------- [3:0 1:0 32 1] [8 0] 1 0
s 1.971425318 _1_ AGT  --- 36 tcp 3040 [0 0 0 0] ------- [1:0 3:0 32 0] [17 0] 0 0
r 1.971425318 _1_ RTR  --- 36 tcp 3040 [0 0 0 0] ------- [1:0 3:0 32 0] [17 0] 0 0
s 1.971425318 _1_ RTR  --- 36 tcp 3060 [0 0 0 0] ------- [1:0 3:0 32 3] [17 0] 0 0
s 1.971425318 _1_ AGT  --- 37 tcp 3040 [0 0 0 0] ------- [1:0 3:0 32 0] [18 0] 0 0
r 1.971425318 _1_ RTR  --- 37 tcp 3040 [0 0 0 0] ------- [1:0 3:0 32 0] [18 0] 0 0
s 1.971425318 _1_ RTR  --- 37 tcp 3060 [0 0 0 0] ------- [1:0 3:0 32 3] [18 0] 0 0
r 1.971714985 _3_ MAC  --- 0 ACK 38 [0 3 0 0] 
s 1.971884318 _1_ MAC  --- 0 RTS 44 [63ee 3 1 0] 
r 1.972236985 _3_ MAC  --- 0 RTS 44 [63ee 3 1 0] 
s 1.972246985 _3_ MAC  --- 0 CTS 38 [62b4 1 0 0] 
r 1.972551651 _1_ MAC  --- 0 CTS 38 [62b4 1 0 0] 
s 1.972561651 _1_ MAC  --- 32 tcp 3118 [13a 3 1 800] ------- [1:0 3:0 32 3] [14 0] 0 0
r 1.997506317 _3_ MAC  --- 32 tcp 3060 [13a 3 1 800] ------- [1:0 3:0 32 3] [14 0] 1 0
s 1.997516317 _3_ MAC  --- 0 ACK 38 [0 1 0 0] 
r 1.997531317 _3_ AGT  --- 32 tcp 3060 [13a 3 1 800] ------- [1:0 3:0 32 3] [14 0] 1 0
s 1.997531317 _3_ AGT  --- 38 ack 40 [0 0 0 0] ------- [3:0 1:0 32 0] [14 0] 0 0
r 1.997531317 _3_ RTR  --- 38 ack 40 [0 0 0 0] ------- [3:0 1:0 32 0] [14 0] 0 0
s 1.997531317 _3_ RTR  --- 38 ack 60 [0 0 0 0] ------- [3:0 1:0 32 1] [14 0] 0 0
r 1.997820984 _1_ MAC  --- 0 ACK 38 [0 1 0 0] 
s 1.997890984 _1_ MAC  --- 0 RTS 44 [63ee 3 1 0] 
r 1.998243650 _3_ MAC  --- 0 RTS 44 [63ee 3 1 0] 
s 1.998253650 _3_ MAC  --- 0 CTS 38 [62b4 1 0 0] 
r 1.998558317 _1_ MAC  --- 0 CTS 38 [62b4 1 0 0] 
s 1.998568317 _1_ MAC  --- 33 tcp 3118 [13a 3 1 800] ------- [1:0 3:0 32 3] [15 0] 0 0
M 2.00000 2 (286.00, 363.00, 0.00), (363.00, 287.00), 30.00
s 2.000000000 _2_ AGT  --- 39 tcp 40 [0 0 0 0] ------- [2:0 4:0 32 0] [0 0] 0 0
r 2.000000000 _2_ RTR  --- 39 tcp 40 [0 0 0 0] ------- [2:0 4:0 32 0] [0 0] 0 0
s 2.000000000 _2_ RTR  --- 39 tcp 60 [0 0 0 0] ------- [2:0 4:0 32 4] [0 0] 0 0
r 2.023512984 _3_ MAC  --- 33 tcp 3060 [13a 3 1 800] ------- [1:0 3:0 32 3] [15 0] 1 0
s 2.023522984 _3_ MAC  --- 0 ACK 38 [0 1 0 0] 
r 2.023537984 _3_ AGT  --- 33 tcp 3060 [13a 3 1 800] ------- [1:0 3:0 32 3] [15 0] 1 0
s 2.023537984 _3_ AGT  --- 40 ack 40 [0 0 0 0] ------- [3:0 1:0 32 0] [15 0] 0 0
r 2.023537984 _3_ RTR  --- 40 ack 40 [0 0 0 0] ------- [3:0 1:0 32 0] [15 0] 0 0
s 2.023537984 _3_ RTR  --- 40 ack 60 [0 0 0 0] ------- [3:0 1:0 32 1] [15 0] 0 0
r 2.023827650 _1_ MAC  --- 0 ACK 38 [0 1 0 0] 
s 2.024016984 _3_ MAC  --- 0 RTS 44 [62e 1 3 0] 
r 2.024369650 _1_ MAC  --- 0 RTS 44 [62e 1 3 0] 
s 2.024379650 _1_ MAC  --- 0 CTS 38 [4f4 3 0 0] 
r 2.024684317 _3_ MAC  --- 0 CTS 38 [4f4 3 0 0] 
s 2.024694317 _3_ MAC  --- 27 ack 118 [13a 1 3 800] ------- [3:0 1:0 32 1] [9 0] 0 0
r 2.025638983 _1_ MAC  --- 27 ack 60 [13a 1 3 800] ------- [3:0 1:0 32 1] [9 0] 1 0
s 2.025648983 _1_ MAC  --- 0 ACK 38 [0 3 0 0] 
r 2.025663983 _1_ AGT  --- 27 ack 60 [13a 1 3 800] ------- [3:0 1:0 32 1] [9 0] 1 0
s 2.025663983 _1_ AGT  --- 41 tcp 3040 [0 0 0 0] ------- [1:0 3:0 32 0] [19 0] 0 0
r 2.025663983 _1_ RTR  --- 41 tcp 3040 [0 0 0 0] ------- [1:0 3:0 32 0] [19 0] 0 0
s 2.025663983 _1_ RTR  --- 41 tcp 3060 [0 0 0 0] ------- [1:0 3:0 32 3] [19 0] 0 0
s 2.025663983 _1_ AGT  --- 42 tcp 3040 [0 0 0 0] ------- [1:0 3:0 32 0] [20 0] 0 0
r 2.025663983 _1_ RTR  --- 42 tcp 3040 [0 0 0 0] ------- [1:0 3:0 32 0] [20 0] 0 0
s 2.025663983 _1_ RTR  --- 42 tcp 3060 [0 0 0 0] ------- [1:0 3:0 32 3] [20 0] 0 0
r 2.025953650 _3_ MAC  --- 0 ACK 38 [0 3 0 0] 
s 2.026102983 _1_ MAC  --- 0 RTS 44 [63ee 3 1 0] 
r 2.026455650 _3_ MAC  --- 0 RTS 44 [63ee 3 1 0] 
s 2.026465650 _3_ MAC  --- 0 CTS 38 [62b4 1 0 0] 
r 2.026770317 _1_ MAC  --- 0 CTS 38 [62b4 1 0 0] 
s 2.026780317 _1_ MAC  --- 34 tcp 3118 [13a 3 1 800] ------- [1:0 3:0 32 3] [16 0] 0 0
r 2.051724984 _3_ MAC  --- 34 tcp 3060 [13a 3 1 800] ------- [1:0 3:0 32 3] [16 0] 1 0
s 2.051734984 _3_ MAC  --- 0 ACK 38 [0 1 0 0] 
r 2.051749984 _3_ AGT  --- 34 tcp 3060 [13a 3 1 800] ------- [1:0 3:0 32 3] [16 0] 1 0
s 2.051749984 _3_ AGT  --- 43 ack 40 [0 0 0 0] ------- [3:0 1:0 32 0] [16 0] 0 0
r 2.051749984 _3_ RTR  --- 43 ack 40 [0 0 0 0] ------- [3:0 1:0 32 0] [16 0] 0 0
s 2.051749984 _3_ RTR  --- 43 ack 60 [0 0 0 0] ------- [3:0 1:0 32 1] [16 0] 0 0
r 2.052039650 _1_ MAC  --- 0 ACK 38 [0 1 0 0] 
s 2.052108984 _3_ MAC  --- 0 RTS 44 [62e 1 3 0] 
r 2.052461650 _1_ MAC  --- 0 RTS 44 [62e 1 3 0] 
s 2.052471650 _1_ MAC  --- 0 CTS 38 [4f4 3 0 0] 
r 2.052776317 _3_ MAC  --- 0 CTS 38 [4f4 3 0 0] 
s 2.052786317 _3_ MAC  --- 28 ack 118 [13a 1 3 800] ------- [3:0 1:0 32 1] [10 0] 0 0
r 2.053730984 _1_ MAC  --- 28 ack 60 [13a 1 3 800] ------- [3:0 1:0 32 1] [10 0] 1 0
s 2.053740984 _1_ MAC  --- 0 ACK 38 [0 3 0 0] 
r 2.053755984 _1_ AGT  --- 28 ack 60 [13a 1 3 800] ------- [3:0 1:0 32 1] [10 0] 1 0
s 2.053755984 _1_ AGT  --- 44 tcp 3040 [0 0 0 0] ------- [1:0 3:0 32 0] [21 0] 0 0
r 2.053755984 _1_ RTR  --- 44 tcp 3040 [0 0 0 0] ------- [1:0 3:0 32 0] [21 0] 0 0
s 2.053755984 _1_ RTR  --- 44 tcp 3060 [0 0 0 0] ------- [1:0 3:0 32 3] [21 0] 0 0
s 2.053755984 _1_ AGT  --- 45 tcp 3040 [0 0 0 0] ------- [1:0 3:0 32 0] [22 0] 0 0
r 2.053755984 _1_ RTR  --- 45 tcp 3040 [0 0 0 0] ------- [1:0 3:0 32 0] [22 0] 0 0